
Host: knut

Timers On : Wed Jun 24 20:01:34 2015
Timers Off: Wed Jun 24 20:01:34 2015

Wall Time:        0.00 seconds


***********************************************************
