
    -----------------------------------------------------------------------
          Psi4: An Open-Source Ab Initio Electronic Structure Package
                               Psi4 1.1 release

                         Git: Rev {HEAD} add49b9 


    R. M. Parrish, L. A. Burns, D. G. A. Smith, A. C. Simmonett,
    A. E. DePrince III, E. G. Hohenstein, U. Bozkaya, A. Yu. Sokolov,
    R. Di Remigio, R. M. Richard, J. F. Gonthier, A. M. James,
    H. R. McAlexander, A. Kumar, M. Saitow, X. Wang, B. P. Pritchard,
    P. Verma, H. F. Schaefer III, K. Patkowski, R. A. King, E. F. Valeev,
    F. A. Evangelista, J. M. Turney, T. D. Crawford, and C. D. Sherrill,
    J. Chem. Theory Comput. in press (2017).
    (doi: 10.1021/acs.jctc.7b00174)

    -----------------------------------------------------------------------


    Psi4 started on: Tuesday, 25 July 2017 04:11PM

    Process ID:  10291
    PSIDATADIR: /home/matt/psi4conda/share/psi4
    Memory:     500.0 MiB
    Threads:    1
    
  ==> Input File <==

--------------------------------------------------------------------------
molecule {
O     -0.00500000000    0.00000000000   -0.07117629540   
H      0.00000000000   -0.89161956800    0.55980976130   
H      0.00000000000    0.89161956800    0.56480976130   

}

set e_convergence 11
set basis         cc-pVDZ
energy('scf')

--------------------------------------------------------------------------

*** tstart() called on sebastian
*** at Tue Jul 25 16:11:26 2017

   => Loading Basis Set <=

    Name: CC-PVDZ
    Role: ORBITAL
    Keyword: BASIS
    atoms 1   entry O          line   190 file /home/matt/psi4conda/share/psi4/basis/cc-pvdz.gbs 
    atoms 2-3 entry H          line    20 file /home/matt/psi4conda/share/psi4/basis/cc-pvdz.gbs 

    There are an even number of electrons - assuming singlet.
    Specify the multiplicity in the molecule input block.


         ---------------------------------------------------------
                                   SCF
            by Justin Turney, Rob Parrish, and Andy Simmonett
                              RHF Reference
                        1 Threads,    500 MiB Core
         ---------------------------------------------------------

  ==> Geometry <==

    Molecular point group: cs
    Full point group: Cs

    Geometry (in Angstrom), charge = 0, multiplicity = 1:

       Center              X                  Y                   Z               Mass       
    ------------   -----------------  -----------------  -----------------  -----------------
           O          0.070898720035    -0.000000000000     0.000000000000    15.994914619560
           H         -0.560107146309    -0.891619568218     0.000000000000     1.007825032070
           H         -0.565106990575     0.891619568218     0.000000000000     1.007825032070

  Running in cs symmetry.

  Rotational constants: A =     23.46561  B =     10.52001  C =      7.26361 [cm^-1]
  Rotational constants: A = 703481.16833  B = 315381.84404  C = 217757.62337 [MHz]
  Nuclear repulsion =    8.037772072331258

  Charge       = 0
  Multiplicity = 1
  Electrons    = 10
  Nalpha       = 5
  Nbeta        = 5

  ==> Algorithm <==

  SCF Algorithm Type is DF.
  DIIS enabled.
  MOM disabled.
  Fractional occupation disabled.
  Guess Type is SAD.
  Energy threshold   = 1.00e-11
  Density threshold  = 1.00e-06
  Integral threshold = 0.00e+00

  ==> Primary Basis <==

  Basis Set: CC-PVDZ
    Blend: CC-PVDZ
    Number of shells: 12
    Number of basis function: 24
    Number of Cartesian functions: 25
    Spherical Harmonics?: true
    Max angular momentum: 2

   => Loading Basis Set <=

    Name: (CC-PVDZ AUX)
    Role: JKFIT
    Keyword: DF_BASIS_SCF
    atoms 1   entry O          line   220 file /home/matt/psi4conda/share/psi4/basis/cc-pvdz-jkfit.gbs 
    atoms 2-3 entry H          line    50 file /home/matt/psi4conda/share/psi4/basis/cc-pvdz-jkfit.gbs 

  ==> Pre-Iterations <==

   -------------------------------------------------------
    Irrep   Nso     Nmo     Nalpha   Nbeta   Ndocc  Nsocc
   -------------------------------------------------------
     A'        18      18       0       0       0       0
     A"         6       6       0       0       0       0
   -------------------------------------------------------
    Total      24      24       5       5       5       0
   -------------------------------------------------------

  ==> Integral Setup <==

  ==> DFJK: Density-Fitted J/K Matrices <==

    J tasked:                  Yes
    K tasked:                  Yes
    wK tasked:                  No
    OpenMP threads:              1
    Integrals threads:           1
    Memory (MB):               375
    Algorithm:                Core
    Integral Cache:           NONE
    Schwarz Cutoff:          1E-12
    Fitting Condition:       1E-12

   => Auxiliary Basis Set <=

  Basis Set: (CC-PVDZ AUX)
    Blend: CC-PVDZ-JKFIT
    Number of shells: 42
    Number of basis function: 116
    Number of Cartesian functions: 131
    Spherical Harmonics?: true
    Max angular momentum: 3

  Minimum eigenvalue in the overlap matrix is 4.7057982843E-02.
  Using Symmetric Orthogonalization.

  SCF Guess: Superposition of Atomic Densities via on-the-fly atomic UHF.

  ==> Iterations <==

                           Total Energy        Delta E     RMS |[F,P]|

   @DF-RHF iter   0:   -75.67504992368684   -7.56750e+01   6.59091e-02 
   @DF-RHF iter   1:   -75.97198167763563   -2.96932e-01   1.12816e-02 
   @DF-RHF iter   2:   -75.98580567188702   -1.38240e-02   5.89221e-03 DIIS
   @DF-RHF iter   3:   -75.99043191118272   -4.62624e-03   9.53280e-04 DIIS
   @DF-RHF iter   4:   -75.99061140962046   -1.79498e-04   2.08570e-04 DIIS
   @DF-RHF iter   5:   -75.99063311058919   -2.17010e-05   6.21478e-05 DIIS
   @DF-RHF iter   6:   -75.99063563038847   -2.51980e-06   1.14251e-05 DIIS
   @DF-RHF iter   7:   -75.99063571267268   -8.22842e-08   1.37813e-06 DIIS
   @DF-RHF iter   8:   -75.99063571358018   -9.07491e-10   2.32787e-07 DIIS
   @DF-RHF iter   9:   -75.99063571360142   -2.12452e-11   3.09888e-08 DIIS
   @DF-RHF iter  10:   -75.99063571360170   -2.84217e-13   3.06599e-09 DIIS

  ==> Post-Iterations <==

    Orbital Energies (a.u.)
    -----------------------

    Doubly Occupied:                                                      

       1Ap   -20.570061     2Ap    -1.276139     3Ap    -0.639565  
       4Ap    -0.532981     1App   -0.484204  

    Virtual:                                                              

       5Ap     0.158386     6Ap     0.231877     7Ap     0.722423  
       8Ap     0.729841     9Ap     1.169066     2App    1.189837  
      10Ap     1.260327     3App    1.440152    11Ap     1.511904  
       4App    1.678368    12Ap     1.790497    13Ap     1.897181  
      14Ap     2.171549    15Ap     2.209713     5App    3.159931  
       6App    3.230523    16Ap     3.309832    17Ap     3.761198  
      18Ap     3.971113  

    Final Occupation by Irrep:
             Ap   App 
    DOCC [     4,    1 ]

  Energy converged.

  @DF-RHF Final Energy:   -75.99063571360170

   => Energetics <=

    Nuclear Repulsion Energy =              8.0377720723312578
    One-Electron Energy =                -121.0509154113388206
    Two-Electron Energy =                  37.0225076254058720
    DFT Exchange-Correlation Energy =       0.0000000000000000
    Empirical Dispersion Energy =           0.0000000000000000
    PCM Polarization Energy =               0.0000000000000000
    EFP Energy =                            0.0000000000000000
    Total Energy =                        -75.9906357136017050



Properties will be evaluated at   0.000000,   0.000000,   0.000000 Bohr

Properties computed using the SCF density matrix

  Nuclear Dipole Moment: (a.u.)
     X:    -1.0545      Y:     0.0000      Z:     0.0000

  Electronic Dipole Moment: (a.u.)
     X:     0.2343      Y:    -0.0009      Z:     0.0000

  Dipole Moment: (a.u.)
     X:    -0.8202      Y:    -0.0009      Z:     0.0000     Total:     0.8202

  Dipole Moment: (Debye)
     X:    -2.0847      Y:    -0.0022      Z:     0.0000     Total:     2.0847


*** tstop() called on sebastian at Tue Jul 25 16:11:26 2017
Module time:
	user time   =       0.23 seconds =       0.00 minutes
	system time =       0.00 seconds =       0.00 minutes
	total time  =          0 seconds =       0.00 minutes
Total time:
	user time   =       0.23 seconds =       0.00 minutes
	system time =       0.00 seconds =       0.00 minutes
	total time  =          0 seconds =       0.00 minutes

*** Psi4 exiting successfully. Buy a developer a beer!
