
    -----------------------------------------------------------------------
          Psi4: An Open-Source Ab Initio Electronic Structure Package
                               Psi4 1.1 release

                         Git: Rev {HEAD} add49b9 


    R. M. Parrish, L. A. Burns, D. G. A. Smith, A. C. Simmonett,
    A. E. DePrince III, E. G. Hohenstein, U. Bozkaya, A. Yu. Sokolov,
    R. Di Remigio, R. M. Richard, J. F. Gonthier, A. M. James,
    H. R. McAlexander, A. Kumar, M. Saitow, X. Wang, B. P. Pritchard,
    P. Verma, H. F. Schaefer III, K. Patkowski, R. A. King, E. F. Valeev,
    F. A. Evangelista, J. M. Turney, T. D. Crawford, and C. D. Sherrill,
    J. Chem. Theory Comput. in press (2017).
    (doi: 10.1021/acs.jctc.7b00174)

    -----------------------------------------------------------------------


    Psi4 started on: Tuesday, 25 July 2017 04:11PM

    Process ID:  10550
    PSIDATADIR: /home/matt/psi4conda/share/psi4
    Memory:     500.0 MiB
    Threads:    1
    
  ==> Input File <==

--------------------------------------------------------------------------
molecule {
O      0.00500000000    0.00000000000   -0.07117629540   
H      0.00000000000   -0.89161956800    0.56480976130   
H      0.00500000000    0.89161956800    0.56480976130   

}

set e_convergence 11
set basis         cc-pVDZ
energy('scf')

--------------------------------------------------------------------------

*** tstart() called on sebastian
*** at Tue Jul 25 16:11:47 2017

   => Loading Basis Set <=

    Name: CC-PVDZ
    Role: ORBITAL
    Keyword: BASIS
    atoms 1   entry O          line   190 file /home/matt/psi4conda/share/psi4/basis/cc-pvdz.gbs 
    atoms 2-3 entry H          line    20 file /home/matt/psi4conda/share/psi4/basis/cc-pvdz.gbs 

    There are an even number of electrons - assuming singlet.
    Specify the multiplicity in the molecule input block.


         ---------------------------------------------------------
                                   SCF
            by Justin Turney, Rob Parrish, and Andy Simmonett
                              RHF Reference
                        1 Threads,    500 MiB Core
         ---------------------------------------------------------

  ==> Geometry <==

    Molecular point group: cs
    Full point group: Cs

    Geometry (in Angstrom), charge = 0, multiplicity = 1:

       Center              X                  Y                   Z               Mass       
    ------------   -----------------  -----------------  -----------------  -----------------
           O          0.071176848845    -0.000000000000     0.000000000000    15.994914619560
           H         -0.564823948650    -0.891623072797     0.000000000000     1.007825032070
           H         -0.564804294283     0.891623072797     0.000000000000     1.007825032070

  Running in cs symmetry.

  Rotational constants: A =     23.28225  B =     10.52007  C =      7.24598 [cm^-1]
  Rotational constants: A = 697984.15434  B = 315383.85881  C = 217229.01565 [MHz]
  Nuclear repulsion =    8.027564608891794

  Charge       = 0
  Multiplicity = 1
  Electrons    = 10
  Nalpha       = 5
  Nbeta        = 5

  ==> Algorithm <==

  SCF Algorithm Type is DF.
  DIIS enabled.
  MOM disabled.
  Fractional occupation disabled.
  Guess Type is SAD.
  Energy threshold   = 1.00e-11
  Density threshold  = 1.00e-06
  Integral threshold = 0.00e+00

  ==> Primary Basis <==

  Basis Set: CC-PVDZ
    Blend: CC-PVDZ
    Number of shells: 12
    Number of basis function: 24
    Number of Cartesian functions: 25
    Spherical Harmonics?: true
    Max angular momentum: 2

   => Loading Basis Set <=

    Name: (CC-PVDZ AUX)
    Role: JKFIT
    Keyword: DF_BASIS_SCF
    atoms 1   entry O          line   220 file /home/matt/psi4conda/share/psi4/basis/cc-pvdz-jkfit.gbs 
    atoms 2-3 entry H          line    50 file /home/matt/psi4conda/share/psi4/basis/cc-pvdz-jkfit.gbs 

  ==> Pre-Iterations <==

   -------------------------------------------------------
    Irrep   Nso     Nmo     Nalpha   Nbeta   Ndocc  Nsocc
   -------------------------------------------------------
     A'        18      18       0       0       0       0
     A"         6       6       0       0       0       0
   -------------------------------------------------------
    Total      24      24       5       5       5       0
   -------------------------------------------------------

  ==> Integral Setup <==

  ==> DFJK: Density-Fitted J/K Matrices <==

    J tasked:                  Yes
    K tasked:                  Yes
    wK tasked:                  No
    OpenMP threads:              1
    Integrals threads:           1
    Memory (MB):               375
    Algorithm:                Core
    Integral Cache:           NONE
    Schwarz Cutoff:          1E-12
    Fitting Condition:       1E-12

   => Auxiliary Basis Set <=

  Basis Set: (CC-PVDZ AUX)
    Blend: CC-PVDZ-JKFIT
    Number of shells: 42
    Number of basis function: 116
    Number of Cartesian functions: 131
    Spherical Harmonics?: true
    Max angular momentum: 3

  Minimum eigenvalue in the overlap matrix is 4.7137547936E-02.
  Using Symmetric Orthogonalization.

  SCF Guess: Superposition of Atomic Densities via on-the-fly atomic UHF.

  ==> Iterations <==

                           Total Energy        Delta E     RMS |[F,P]|

   @DF-RHF iter   0:   -75.75323891621079   -7.57532e+01   6.65997e-02 
   @DF-RHF iter   1:   -75.94632802979962   -1.93089e-01   1.51371e-02 
   @DF-RHF iter   2:   -75.97808684867664   -3.17588e-02   9.04096e-03 DIIS
   @DF-RHF iter   3:   -75.98891112196890   -1.08243e-02   1.51386e-03 DIIS
   @DF-RHF iter   4:   -75.98997824288494   -1.06712e-03   5.46294e-04 DIIS
   @DF-RHF iter   5:   -75.99013388136675   -1.55638e-04   1.16649e-04 DIIS
   @DF-RHF iter   6:   -75.99014290690894   -9.02554e-06   2.28859e-05 DIIS
   @DF-RHF iter   7:   -75.99014323187971   -3.24971e-07   3.63668e-06 DIIS
   @DF-RHF iter   8:   -75.99014323750438   -5.62467e-09   4.77238e-07 DIIS
   @DF-RHF iter   9:   -75.99014323757009   -6.57110e-11   3.47815e-08 DIIS
   @DF-RHF iter  10:   -75.99014323757051   -4.12115e-13   5.40474e-09 DIIS

  ==> Post-Iterations <==

    Orbital Energies (a.u.)
    -----------------------

    Doubly Occupied:                                                      

       1Ap   -20.570448     2Ap    -1.275800     3Ap    -0.638649  
       4Ap    -0.533134     1App   -0.484267  

    Virtual:                                                              

       5Ap     0.158090     6Ap     0.231532     7Ap     0.721181  
       8Ap     0.729648     9Ap     1.169150     2App    1.189530  
      10Ap     1.260776     3App    1.440468    11Ap     1.510776  
       4App    1.677493    12Ap     1.790217    13Ap     1.896862  
      14Ap     2.168349    15Ap     2.207523     5App    3.159735  
       6App    3.228673    16Ap     3.309549    17Ap     3.758007  
      18Ap     3.970505  

    Final Occupation by Irrep:
             Ap   App 
    DOCC [     4,    1 ]

  Energy converged.

  @DF-RHF Final Energy:   -75.99014323757051

   => Energetics <=

    Nuclear Repulsion Energy =              8.0275646088917938
    One-Electron Energy =                -121.0308194083594344
    Two-Electron Energy =                  37.0131115618971336
    DFT Exchange-Correlation Energy =       0.0000000000000000
    Empirical Dispersion Energy =           0.0000000000000000
    PCM Polarization Energy =               0.0000000000000000
    EFP Energy =                            0.0000000000000000
    Total Energy =                        -75.9901432375705070



Properties will be evaluated at   0.000000,   0.000000,   0.000000 Bohr

Properties computed using the SCF density matrix

  Nuclear Dipole Moment: (a.u.)
     X:    -1.0587      Y:     0.0000      Z:     0.0000

  Electronic Dipole Moment: (a.u.)
     X:     0.2367      Y:     0.0000      Z:     0.0000

  Dipole Moment: (a.u.)
     X:    -0.8220      Y:     0.0000      Z:     0.0000     Total:     0.8220

  Dipole Moment: (Debye)
     X:    -2.0893      Y:     0.0000      Z:     0.0000     Total:     2.0893


*** tstop() called on sebastian at Tue Jul 25 16:11:47 2017
Module time:
	user time   =       0.22 seconds =       0.00 minutes
	system time =       0.01 seconds =       0.00 minutes
	total time  =          0 seconds =       0.00 minutes
Total time:
	user time   =       0.22 seconds =       0.00 minutes
	system time =       0.01 seconds =       0.00 minutes
	total time  =          0 seconds =       0.00 minutes

*** Psi4 exiting successfully. Buy a developer a beer!
