
    -----------------------------------------------------------------------
          Psi4: An Open-Source Ab Initio Electronic Structure Package
                               Psi4 1.1 release

                         Git: Rev {HEAD} add49b9 


    R. M. Parrish, L. A. Burns, D. G. A. Smith, A. C. Simmonett,
    A. E. DePrince III, E. G. Hohenstein, U. Bozkaya, A. Yu. Sokolov,
    R. Di Remigio, R. M. Richard, J. F. Gonthier, A. M. James,
    H. R. McAlexander, A. Kumar, M. Saitow, X. Wang, B. P. Pritchard,
    P. Verma, H. F. Schaefer III, K. Patkowski, R. A. King, E. F. Valeev,
    F. A. Evangelista, J. M. Turney, T. D. Crawford, and C. D. Sherrill,
    J. Chem. Theory Comput. in press (2017).
    (doi: 10.1021/acs.jctc.7b00174)

    -----------------------------------------------------------------------


    Psi4 started on: Tuesday, 25 July 2017 04:11PM

    Process ID:  10279
    PSIDATADIR: /home/matt/psi4conda/share/psi4
    Memory:     500.0 MiB
    Threads:    1
    
  ==> Input File <==

--------------------------------------------------------------------------
molecule {
O     -0.00500000000    0.00000000000   -0.07117629540   
H      0.00000000000   -0.89161956800    0.56480976130   
H      0.00000000000    0.88661956800    0.56480976130   

}

set e_convergence 11
set basis         cc-pVDZ
energy('scf')

--------------------------------------------------------------------------

*** tstart() called on sebastian
*** at Tue Jul 25 16:11:25 2017

   => Loading Basis Set <=

    Name: CC-PVDZ
    Role: ORBITAL
    Keyword: BASIS
    atoms 1   entry O          line   190 file /home/matt/psi4conda/share/psi4/basis/cc-pvdz.gbs 
    atoms 2-3 entry H          line    20 file /home/matt/psi4conda/share/psi4/basis/cc-pvdz.gbs 

    There are an even number of electrons - assuming singlet.
    Specify the multiplicity in the molecule input block.


         ---------------------------------------------------------
                                   SCF
            by Justin Turney, Rob Parrish, and Andy Simmonett
                              RHF Reference
                        1 Threads,    500 MiB Core
         ---------------------------------------------------------

  ==> Geometry <==

    Molecular point group: cs
    Full point group: Cs

    Geometry (in Angstrom), charge = 0, multiplicity = 1:

       Center              X                  Y                   Z               Mass       
    ------------   -----------------  -----------------  -----------------  -----------------
           O          0.071178498538     0.000279787183     0.000000000000    15.994914619560
           H         -0.564827212378    -0.891339780817     0.000000000000     1.007825032070
           H         -0.564827212378     0.886899355183     0.000000000000     1.007825032070

  Running in cs symmetry.

  Rotational constants: A =     23.28147  B =     10.57926  C =      7.27394 [cm^-1]
  Rotational constants: A = 697960.78248  B = 317158.33810  C = 218067.09907 [MHz]
  Nuclear repulsion =    8.042766095606808

  Charge       = 0
  Multiplicity = 1
  Electrons    = 10
  Nalpha       = 5
  Nbeta        = 5

  ==> Algorithm <==

  SCF Algorithm Type is DF.
  DIIS enabled.
  MOM disabled.
  Fractional occupation disabled.
  Guess Type is SAD.
  Energy threshold   = 1.00e-11
  Density threshold  = 1.00e-06
  Integral threshold = 0.00e+00

  ==> Primary Basis <==

  Basis Set: CC-PVDZ
    Blend: CC-PVDZ
    Number of shells: 12
    Number of basis function: 24
    Number of Cartesian functions: 25
    Spherical Harmonics?: true
    Max angular momentum: 2

   => Loading Basis Set <=

    Name: (CC-PVDZ AUX)
    Role: JKFIT
    Keyword: DF_BASIS_SCF
    atoms 1   entry O          line   220 file /home/matt/psi4conda/share/psi4/basis/cc-pvdz-jkfit.gbs 
    atoms 2-3 entry H          line    50 file /home/matt/psi4conda/share/psi4/basis/cc-pvdz-jkfit.gbs 

  ==> Pre-Iterations <==

   -------------------------------------------------------
    Irrep   Nso     Nmo     Nalpha   Nbeta   Ndocc  Nsocc
   -------------------------------------------------------
     A'        18      18       0       0       0       0
     A"         6       6       0       0       0       0
   -------------------------------------------------------
    Total      24      24       5       5       5       0
   -------------------------------------------------------

  ==> Integral Setup <==

  ==> DFJK: Density-Fitted J/K Matrices <==

    J tasked:                  Yes
    K tasked:                  Yes
    wK tasked:                  No
    OpenMP threads:              1
    Integrals threads:           1
    Memory (MB):               375
    Algorithm:                Core
    Integral Cache:           NONE
    Schwarz Cutoff:          1E-12
    Fitting Condition:       1E-12

   => Auxiliary Basis Set <=

  Basis Set: (CC-PVDZ AUX)
    Blend: CC-PVDZ-JKFIT
    Number of shells: 42
    Number of basis function: 116
    Number of Cartesian functions: 131
    Spherical Harmonics?: true
    Max angular momentum: 3

  Minimum eigenvalue in the overlap matrix is 4.6882002353E-02.
  Using Symmetric Orthogonalization.

  SCF Guess: Superposition of Atomic Densities via on-the-fly atomic UHF.

  ==> Iterations <==

                           Total Energy        Delta E     RMS |[F,P]|

   @DF-RHF iter   0:   -75.83417515735151   -7.58342e+01   6.73110e-02 
   @DF-RHF iter   1:   -75.92689910174353   -9.27239e-02   1.79402e-02 
   @DF-RHF iter   2:   -75.97381799193846   -4.69189e-02   1.08421e-02 DIIS
   @DF-RHF iter   3:   -75.98935604922106   -1.55381e-02   1.97167e-03 DIIS
   @DF-RHF iter   4:   -75.99085156272379   -1.49551e-03   6.00698e-04 DIIS
   @DF-RHF iter   5:   -75.99101993345630   -1.68371e-04   1.18545e-04 DIIS
   @DF-RHF iter   6:   -75.99102861685076   -8.68339e-06   3.27882e-05 DIIS
   @DF-RHF iter   7:   -75.99102929065727   -6.73807e-07   5.54345e-06 DIIS
   @DF-RHF iter   8:   -75.99102930635166   -1.56944e-08   4.71447e-07 DIIS
   @DF-RHF iter   9:   -75.99102930642661   -7.49480e-11   4.69882e-08 DIIS
   @DF-RHF iter  10:   -75.99102930642725   -6.39488e-13   8.95383e-09 DIIS

  ==> Post-Iterations <==

    Orbital Energies (a.u.)
    -----------------------

    Doubly Occupied:                                                      

       1Ap   -20.570240     2Ap    -1.276587     3Ap    -0.639362  
       4Ap    -0.533767     1App   -0.484404  

    Virtual:                                                              

       5Ap     0.158580     6Ap     0.231936     7Ap     0.721557  
       8Ap     0.731595     9Ap     1.169092     2App    1.189752  
      10Ap     1.260751     3App    1.440985    11Ap     1.509285  
       4App    1.677175    12Ap     1.792140    13Ap     1.896936  
      14Ap     2.171594    15Ap     2.210735     5App    3.161561  
       6App    3.229962    16Ap     3.312926    17Ap     3.758944  
      18Ap     3.973538  

    Final Occupation by Irrep:
             Ap   App 
    DOCC [     4,    1 ]

  Energy converged.

  @DF-RHF Final Energy:   -75.99102930642725

   => Energetics <=

    Nuclear Repulsion Energy =              8.0427660956068081
    One-Electron Energy =                -121.0588684528591727
    Two-Electron Energy =                  37.0250730508251138
    DFT Exchange-Correlation Energy =       0.0000000000000000
    Empirical Dispersion Energy =           0.0000000000000000
    PCM Polarization Energy =               0.0000000000000000
    EFP Energy =                            0.0000000000000000
    Total Energy =                        -75.9910293064272508



Properties will be evaluated at   0.000000,   0.000000,   0.000000 Bohr

Properties computed using the SCF density matrix

  Nuclear Dipole Moment: (a.u.)
     X:    -1.0587      Y:    -0.0042      Z:     0.0000

  Electronic Dipole Moment: (a.u.)
     X:     0.2361      Y:     0.0022      Z:     0.0000

  Dipole Moment: (a.u.)
     X:    -0.8226      Y:    -0.0020      Z:     0.0000     Total:     0.8226

  Dipole Moment: (Debye)
     X:    -2.0908      Y:    -0.0051      Z:     0.0000     Total:     2.0908


*** tstop() called on sebastian at Tue Jul 25 16:11:25 2017
Module time:
	user time   =       0.22 seconds =       0.00 minutes
	system time =       0.01 seconds =       0.00 minutes
	total time  =          0 seconds =       0.00 minutes
Total time:
	user time   =       0.22 seconds =       0.00 minutes
	system time =       0.01 seconds =       0.00 minutes
	total time  =          0 seconds =       0.00 minutes

*** Psi4 exiting successfully. Buy a developer a beer!
