
    -----------------------------------------------------------------------
          Psi4: An Open-Source Ab Initio Electronic Structure Package
                               Psi4 1.1 release

                         Git: Rev {HEAD} add49b9 


    R. M. Parrish, L. A. Burns, D. G. A. Smith, A. C. Simmonett,
    A. E. DePrince III, E. G. Hohenstein, U. Bozkaya, A. Yu. Sokolov,
    R. Di Remigio, R. M. Richard, J. F. Gonthier, A. M. James,
    H. R. McAlexander, A. Kumar, M. Saitow, X. Wang, B. P. Pritchard,
    P. Verma, H. F. Schaefer III, K. Patkowski, R. A. King, E. F. Valeev,
    F. A. Evangelista, J. M. Turney, T. D. Crawford, and C. D. Sherrill,
    J. Chem. Theory Comput. in press (2017).
    (doi: 10.1021/acs.jctc.7b00174)

    -----------------------------------------------------------------------


    Psi4 started on: Tuesday, 25 July 2017 04:11PM

    Process ID:  10598
    PSIDATADIR: /home/matt/psi4conda/share/psi4
    Memory:     500.0 MiB
    Threads:    1
    
  ==> Input File <==

--------------------------------------------------------------------------
molecule {
O      0.00000000000   -0.00500000000   -0.07117629540   
H      0.00000000000   -0.89161956800    0.55980976130   
H      0.00000000000    0.89161956800    0.56480976130   

}

set e_convergence 11
set basis         cc-pVDZ
energy('scf')

--------------------------------------------------------------------------

*** tstart() called on sebastian
*** at Tue Jul 25 16:11:50 2017

   => Loading Basis Set <=

    Name: CC-PVDZ
    Role: ORBITAL
    Keyword: BASIS
    atoms 1   entry O          line   190 file /home/matt/psi4conda/share/psi4/basis/cc-pvdz.gbs 
    atoms 2-3 entry H          line    20 file /home/matt/psi4conda/share/psi4/basis/cc-pvdz.gbs 

    There are an even number of electrons - assuming singlet.
    Specify the multiplicity in the molecule input block.


         ---------------------------------------------------------
                                   SCF
            by Justin Turney, Rob Parrish, and Andy Simmonett
                              RHF Reference
                        1 Threads,    500 MiB Core
         ---------------------------------------------------------

  ==> Geometry <==

    Molecular point group: cs
    Full point group: Cs

    Geometry (in Angstrom), charge = 0, multiplicity = 1:

       Center              X                  Y                   Z               Mass       
    ------------   -----------------  -----------------  -----------------  -----------------
           O          0.000559574366     0.070896511755     0.000000000000    15.994914619560
           H          0.887179142366    -0.560089544945     0.000000000000     1.007825032070
           H         -0.896059993634    -0.565089544945     0.000000000000     1.007825032070

  Running in cs symmetry.

  Rotational constants: A =     23.47014  B =     10.51910  C =      7.26361 [cm^-1]
  Rotational constants: A = 703617.04252  B = 315354.54270  C = 217757.62337 [MHz]
  Nuclear repulsion =    8.038047905728012

  Charge       = 0
  Multiplicity = 1
  Electrons    = 10
  Nalpha       = 5
  Nbeta        = 5

  ==> Algorithm <==

  SCF Algorithm Type is DF.
  DIIS enabled.
  MOM disabled.
  Fractional occupation disabled.
  Guess Type is SAD.
  Energy threshold   = 1.00e-11
  Density threshold  = 1.00e-06
  Integral threshold = 0.00e+00

  ==> Primary Basis <==

  Basis Set: CC-PVDZ
    Blend: CC-PVDZ
    Number of shells: 12
    Number of basis function: 24
    Number of Cartesian functions: 25
    Spherical Harmonics?: true
    Max angular momentum: 2

   => Loading Basis Set <=

    Name: (CC-PVDZ AUX)
    Role: JKFIT
    Keyword: DF_BASIS_SCF
    atoms 1   entry O          line   220 file /home/matt/psi4conda/share/psi4/basis/cc-pvdz-jkfit.gbs 
    atoms 2-3 entry H          line    50 file /home/matt/psi4conda/share/psi4/basis/cc-pvdz-jkfit.gbs 

  ==> Pre-Iterations <==

   -------------------------------------------------------
    Irrep   Nso     Nmo     Nalpha   Nbeta   Ndocc  Nsocc
   -------------------------------------------------------
     A'        18      18       0       0       0       0
     A"         6       6       0       0       0       0
   -------------------------------------------------------
    Total      24      24       5       5       5       0
   -------------------------------------------------------

  ==> Integral Setup <==

  ==> DFJK: Density-Fitted J/K Matrices <==

    J tasked:                  Yes
    K tasked:                  Yes
    wK tasked:                  No
    OpenMP threads:              1
    Integrals threads:           1
    Memory (MB):               375
    Algorithm:                Core
    Integral Cache:           NONE
    Schwarz Cutoff:          1E-12
    Fitting Condition:       1E-12

   => Auxiliary Basis Set <=

  Basis Set: (CC-PVDZ AUX)
    Blend: CC-PVDZ-JKFIT
    Number of shells: 42
    Number of basis function: 116
    Number of Cartesian functions: 131
    Spherical Harmonics?: true
    Max angular momentum: 3

  Minimum eigenvalue in the overlap matrix is 4.7049844064E-02.
  Using Symmetric Orthogonalization.

  SCF Guess: Superposition of Atomic Densities via on-the-fly atomic UHF.

  ==> Iterations <==

                           Total Energy        Delta E     RMS |[F,P]|

   @DF-RHF iter   0:   -75.71679042768287   -7.57168e+01   6.66293e-02 
   @DF-RHF iter   1:   -75.95038303461314   -2.33593e-01   1.48389e-02 
   @DF-RHF iter   2:   -75.97937512281484   -2.89921e-02   8.85570e-03 DIIS
   @DF-RHF iter   3:   -75.98964582366699   -1.02707e-02   1.35561e-03 DIIS
   @DF-RHF iter   4:   -75.99047806852839   -8.32245e-04   5.03533e-04 DIIS
   @DF-RHF iter   5:   -75.99060996105347   -1.31893e-04   1.10852e-04 DIIS
   @DF-RHF iter   6:   -75.99061811627649   -8.15522e-06   2.06047e-05 DIIS
   @DF-RHF iter   7:   -75.99061837859782   -2.62321e-07   3.35245e-06 DIIS
   @DF-RHF iter   8:   -75.99061838340633   -4.80851e-09   4.36007e-07 DIIS
   @DF-RHF iter   9:   -75.99061838346552   -5.91882e-11   3.04089e-08 DIIS
   @DF-RHF iter  10:   -75.99061838346570   -1.84741e-13   4.36267e-09 DIIS

  ==> Post-Iterations <==

    Orbital Energies (a.u.)
    -----------------------

    Doubly Occupied:                                                      

       1Ap   -20.570056     2Ap    -1.276163     3Ap    -0.639588  
       4Ap    -0.532970     1App   -0.484207  

    Virtual:                                                              

       5Ap     0.158363     6Ap     0.231892     7Ap     0.721282  
       8Ap     0.731053     9Ap     1.169026     2App    1.189826  
      10Ap     1.260384     3App    1.440181    11Ap     1.511915  
       4App    1.678367    12Ap     1.790470    13Ap     1.897083  
      14Ap     2.169834    15Ap     2.211703     5App    3.159699  
       6App    3.230820    16Ap     3.309882    17Ap     3.761019  
      18Ap     3.971322  

    Final Occupation by Irrep:
             Ap   App 
    DOCC [     4,    1 ]

  Energy converged.

  @DF-RHF Final Energy:   -75.99061838346570

   => Energetics <=

    Nuclear Repulsion Energy =              8.0380479057280123
    One-Electron Energy =                -121.0513630898809510
    Two-Electron Energy =                  37.0226968006872426
    DFT Exchange-Correlation Energy =       0.0000000000000000
    Empirical Dispersion Energy =           0.0000000000000000
    PCM Polarization Energy =               0.0000000000000000
    EFP Energy =                            0.0000000000000000
    Total Energy =                        -75.9906183834657014



Properties will be evaluated at   0.000000,   0.000000,   0.000000 Bohr

Properties computed using the SCF density matrix

  Nuclear Dipole Moment: (a.u.)
     X:    -0.0083      Y:    -1.0545      Z:     0.0000

  Electronic Dipole Moment: (a.u.)
     X:     0.0052      Y:     0.2343      Z:     0.0000

  Dipole Moment: (a.u.)
     X:    -0.0032      Y:    -0.8202      Z:     0.0000     Total:     0.8202

  Dipole Moment: (Debye)
     X:    -0.0081      Y:    -2.0847      Z:     0.0000     Total:     2.0847


*** tstop() called on sebastian at Tue Jul 25 16:11:51 2017
Module time:
	user time   =       0.22 seconds =       0.00 minutes
	system time =       0.01 seconds =       0.00 minutes
	total time  =          1 seconds =       0.02 minutes
Total time:
	user time   =       0.22 seconds =       0.00 minutes
	system time =       0.01 seconds =       0.00 minutes
	total time  =          1 seconds =       0.02 minutes

*** Psi4 exiting successfully. Buy a developer a beer!
