
    -----------------------------------------------------------------------
          Psi4: An Open-Source Ab Initio Electronic Structure Package
                               Psi4 1.1 release

                         Git: Rev {HEAD} add49b9 


    R. M. Parrish, L. A. Burns, D. G. A. Smith, A. C. Simmonett,
    A. E. DePrince III, E. G. Hohenstein, U. Bozkaya, A. Yu. Sokolov,
    R. Di Remigio, R. M. Richard, J. F. Gonthier, A. M. James,
    H. R. McAlexander, A. Kumar, M. Saitow, X. Wang, B. P. Pritchard,
    P. Verma, H. F. Schaefer III, K. Patkowski, R. A. King, E. F. Valeev,
    F. A. Evangelista, J. M. Turney, T. D. Crawford, and C. D. Sherrill,
    J. Chem. Theory Comput. in press (2017).
    (doi: 10.1021/acs.jctc.7b00174)

    -----------------------------------------------------------------------


    Psi4 started on: Tuesday, 25 July 2017 04:11PM

    Process ID:  10165
    PSIDATADIR: /home/matt/psi4conda/share/psi4
    Memory:     500.0 MiB
    Threads:    1
    
  ==> Input File <==

--------------------------------------------------------------------------
molecule {
O      0.00000000000    0.00500000000   -0.07117629540   
H      0.00000000000   -0.89161956800    0.56980976130   
H      0.00000000000    0.89161956800    0.56480976130   

}

set e_convergence 11
set basis         cc-pVDZ
energy('scf')

--------------------------------------------------------------------------

*** tstart() called on sebastian
*** at Tue Jul 25 16:11:16 2017

   => Loading Basis Set <=

    Name: CC-PVDZ
    Role: ORBITAL
    Keyword: BASIS
    atoms 1   entry O          line   190 file /home/matt/psi4conda/share/psi4/basis/cc-pvdz.gbs 
    atoms 2-3 entry H          line    20 file /home/matt/psi4conda/share/psi4/basis/cc-pvdz.gbs 

    There are an even number of electrons - assuming singlet.
    Specify the multiplicity in the molecule input block.


         ---------------------------------------------------------
                                   SCF
            by Justin Turney, Rob Parrish, and Andy Simmonett
                              RHF Reference
                        1 Threads,    500 MiB Core
         ---------------------------------------------------------

  ==> Geometry <==

    Molecular point group: cs
    Full point group: Cs

    Geometry (in Angstrom), charge = 0, multiplicity = 1:

       Center              X                  Y                   Z               Mass       
    ------------   -----------------  -----------------  -----------------  -----------------
           O         -0.000559574366     0.071456086122     0.000000000000    15.994914619560
           H          0.896059993634    -0.569529970578     0.000000000000     1.007825032070
           H         -0.887179142366    -0.564529970578     0.000000000000     1.007825032070

  Running in cs symmetry.

  Rotational constants: A =     23.10402  B =     10.51908  C =      7.22816 [cm^-1]
  Rotational constants: A = 692640.97680  B = 315354.03742  C = 216694.65170 [MHz]
  Nuclear repulsion =    8.017550609887596

  Charge       = 0
  Multiplicity = 1
  Electrons    = 10
  Nalpha       = 5
  Nbeta        = 5

  ==> Algorithm <==

  SCF Algorithm Type is DF.
  DIIS enabled.
  MOM disabled.
  Fractional occupation disabled.
  Guess Type is SAD.
  Energy threshold   = 1.00e-11
  Density threshold  = 1.00e-06
  Integral threshold = 0.00e+00

  ==> Primary Basis <==

  Basis Set: CC-PVDZ
    Blend: CC-PVDZ
    Number of shells: 12
    Number of basis function: 24
    Number of Cartesian functions: 25
    Spherical Harmonics?: true
    Max angular momentum: 2

   => Loading Basis Set <=

    Name: (CC-PVDZ AUX)
    Role: JKFIT
    Keyword: DF_BASIS_SCF
    atoms 1   entry O          line   220 file /home/matt/psi4conda/share/psi4/basis/cc-pvdz-jkfit.gbs 
    atoms 2-3 entry H          line    50 file /home/matt/psi4conda/share/psi4/basis/cc-pvdz-jkfit.gbs 

  ==> Pre-Iterations <==

   -------------------------------------------------------
    Irrep   Nso     Nmo     Nalpha   Nbeta   Ndocc  Nsocc
   -------------------------------------------------------
     A'        18      18       0       0       0       0
     A"         6       6       0       0       0       0
   -------------------------------------------------------
    Total      24      24       5       5       5       0
   -------------------------------------------------------

  ==> Integral Setup <==

  ==> DFJK: Density-Fitted J/K Matrices <==

    J tasked:                  Yes
    K tasked:                  Yes
    wK tasked:                  No
    OpenMP threads:              1
    Integrals threads:           1
    Memory (MB):               375
    Algorithm:                Core
    Integral Cache:           NONE
    Schwarz Cutoff:          1E-12
    Fitting Condition:       1E-12

   => Auxiliary Basis Set <=

  Basis Set: (CC-PVDZ AUX)
    Blend: CC-PVDZ-JKFIT
    Number of shells: 42
    Number of basis function: 116
    Number of Cartesian functions: 131
    Spherical Harmonics?: true
    Max angular momentum: 3

  Minimum eigenvalue in the overlap matrix is 4.7209520069E-02.
  Using Symmetric Orthogonalization.

  SCF Guess: Superposition of Atomic Densities via on-the-fly atomic UHF.

  ==> Iterations <==

                           Total Energy        Delta E     RMS |[F,P]|

   @DF-RHF iter   0:   -75.64712129160648   -7.56471e+01   6.56200e-02 
   @DF-RHF iter   1:   -75.96868484083878   -3.21564e-01   1.20066e-02 
   @DF-RHF iter   2:   -75.98382762991064   -1.51428e-02   6.63445e-03 DIIS
   @DF-RHF iter   3:   -75.98950790300579   -5.68027e-03   7.88859e-04 DIIS
   @DF-RHF iter   4:   -75.98961456217368   -1.06659e-04   1.32035e-04 DIIS
   @DF-RHF iter   5:   -75.98961917542938   -4.61326e-06   1.80545e-05 DIIS
   @DF-RHF iter   6:   -75.98961932235947   -1.46930e-07   5.54323e-06 DIIS
   @DF-RHF iter   7:   -75.98961934278884   -2.04294e-08   9.03962e-07 DIIS
   @DF-RHF iter   8:   -75.98961934332792   -5.39075e-10   1.15200e-07 DIIS
   @DF-RHF iter   9:   -75.98961934333425   -6.33804e-12   1.73288e-08 DIIS

  ==> Post-Iterations <==

    Orbital Energies (a.u.)
    -----------------------

    Doubly Occupied:                                                      

       1Ap   -20.570833     2Ap    -1.275484     3Ap    -0.637750  
       4Ap    -0.533274     1App   -0.484335  

    Virtual:                                                              

       5Ap     0.157764     6Ap     0.231197     7Ap     0.718880  
       8Ap     0.730583     9Ap     1.169194     2App    1.189204  
      10Ap     1.261297     3App    1.440821    11Ap     1.509645  
       4App    1.676610    12Ap     1.789899    13Ap     1.896414  
      14Ap     2.163301    15Ap     2.207460     5App    3.159249  
       6App    3.227158    16Ap     3.309285    17Ap     3.754611  
      18Ap     3.970097  

    Final Occupation by Irrep:
             Ap   App 
    DOCC [     4,    1 ]

  Energy converged.

  @DF-RHF Final Energy:   -75.98961934333425

   => Energetics <=

    Nuclear Repulsion Energy =              8.0175506098875964
    One-Electron Energy =                -121.0109840291373189
    Two-Electron Energy =                  37.0038140759154714
    DFT Exchange-Correlation Energy =       0.0000000000000000
    Empirical Dispersion Energy =           0.0000000000000000
    PCM Polarization Energy =               0.0000000000000000
    EFP Energy =                            0.0000000000000000
    Total Energy =                        -75.9896193433342546



Properties will be evaluated at   0.000000,   0.000000,   0.000000 Bohr

Properties computed using the SCF density matrix

  Nuclear Dipole Moment: (a.u.)
     X:     0.0083      Y:    -1.0628      Z:     0.0000

  Electronic Dipole Moment: (a.u.)
     X:    -0.0052      Y:     0.2390      Z:     0.0000

  Dipole Moment: (a.u.)
     X:     0.0031      Y:    -0.8238      Z:     0.0000     Total:     0.8238

  Dipole Moment: (Debye)
     X:     0.0079      Y:    -2.0938      Z:     0.0000     Total:     2.0938


*** tstop() called on sebastian at Tue Jul 25 16:11:16 2017
Module time:
	user time   =       0.22 seconds =       0.00 minutes
	system time =       0.01 seconds =       0.00 minutes
	total time  =          0 seconds =       0.00 minutes
Total time:
	user time   =       0.22 seconds =       0.00 minutes
	system time =       0.01 seconds =       0.00 minutes
	total time  =          0 seconds =       0.00 minutes

*** Psi4 exiting successfully. Buy a developer a beer!
