
    -----------------------------------------------------------------------
          Psi4: An Open-Source Ab Initio Electronic Structure Package
                               Psi4 1.1 release

                         Git: Rev {HEAD} add49b9 


    R. M. Parrish, L. A. Burns, D. G. A. Smith, A. C. Simmonett,
    A. E. DePrince III, E. G. Hohenstein, U. Bozkaya, A. Yu. Sokolov,
    R. Di Remigio, R. M. Richard, J. F. Gonthier, A. M. James,
    H. R. McAlexander, A. Kumar, M. Saitow, X. Wang, B. P. Pritchard,
    P. Verma, H. F. Schaefer III, K. Patkowski, R. A. King, E. F. Valeev,
    F. A. Evangelista, J. M. Turney, T. D. Crawford, and C. D. Sherrill,
    J. Chem. Theory Comput. in press (2017).
    (doi: 10.1021/acs.jctc.7b00174)

    -----------------------------------------------------------------------


    Psi4 started on: Tuesday, 25 July 2017 04:11PM

    Process ID:  10309
    PSIDATADIR: /home/matt/psi4conda/share/psi4
    Memory:     500.0 MiB
    Threads:    1
    
  ==> Input File <==

--------------------------------------------------------------------------
molecule {
O      0.00000000000    0.00500000000   -0.07117629540   
H      0.00000000000   -0.89161956800    0.56480976130   
H      0.00000000000    0.89161956800    0.56980976130   

}

set e_convergence 11
set basis         cc-pVDZ
energy('scf')

--------------------------------------------------------------------------

*** tstart() called on sebastian
*** at Tue Jul 25 16:11:28 2017

   => Loading Basis Set <=

    Name: CC-PVDZ
    Role: ORBITAL
    Keyword: BASIS
    atoms 1   entry O          line   190 file /home/matt/psi4conda/share/psi4/basis/cc-pvdz.gbs 
    atoms 2-3 entry H          line    20 file /home/matt/psi4conda/share/psi4/basis/cc-pvdz.gbs 

    There are an even number of electrons - assuming singlet.
    Specify the multiplicity in the molecule input block.


         ---------------------------------------------------------
                                   SCF
            by Justin Turney, Rob Parrish, and Andy Simmonett
                              RHF Reference
                        1 Threads,    500 MiB Core
         ---------------------------------------------------------

  ==> Geometry <==

    Molecular point group: cs
    Full point group: Cs

    Geometry (in Angstrom), charge = 0, multiplicity = 1:

       Center              X                  Y                   Z               Mass       
    ------------   -----------------  -----------------  -----------------  -----------------
           O         -0.000559574366     0.071456086122     0.000000000000    15.994914619560
           H          0.896059993634    -0.564529970578     0.000000000000     1.007825032070
           H         -0.887179142366    -0.569529970578     0.000000000000     1.007825032070

  Running in cs symmetry.

  Rotational constants: A =     23.10029  B =     10.51985  C =      7.22816 [cm^-1]
  Rotational constants: A = 692529.29275  B = 315377.19396  C = 216694.65170 [MHz]
  Nuclear repulsion =    8.017322693055203

  Charge       = 0
  Multiplicity = 1
  Electrons    = 10
  Nalpha       = 5
  Nbeta        = 5

  ==> Algorithm <==

  SCF Algorithm Type is DF.
  DIIS enabled.
  MOM disabled.
  Fractional occupation disabled.
  Guess Type is SAD.
  Energy threshold   = 1.00e-11
  Density threshold  = 1.00e-06
  Integral threshold = 0.00e+00

  ==> Primary Basis <==

  Basis Set: CC-PVDZ
    Blend: CC-PVDZ
    Number of shells: 12
    Number of basis function: 24
    Number of Cartesian functions: 25
    Spherical Harmonics?: true
    Max angular momentum: 2

   => Loading Basis Set <=

    Name: (CC-PVDZ AUX)
    Role: JKFIT
    Keyword: DF_BASIS_SCF
    atoms 1   entry O          line   220 file /home/matt/psi4conda/share/psi4/basis/cc-pvdz-jkfit.gbs 
    atoms 2-3 entry H          line    50 file /home/matt/psi4conda/share/psi4/basis/cc-pvdz-jkfit.gbs 

  ==> Pre-Iterations <==

   -------------------------------------------------------
    Irrep   Nso     Nmo     Nalpha   Nbeta   Ndocc  Nsocc
   -------------------------------------------------------
     A'        18      18       0       0       0       0
     A"         6       6       0       0       0       0
   -------------------------------------------------------
    Total      24      24       5       5       5       0
   -------------------------------------------------------

  ==> Integral Setup <==

  ==> DFJK: Density-Fitted J/K Matrices <==

    J tasked:                  Yes
    K tasked:                  Yes
    wK tasked:                  No
    OpenMP threads:              1
    Integrals threads:           1
    Memory (MB):               375
    Algorithm:                Core
    Integral Cache:           NONE
    Schwarz Cutoff:          1E-12
    Fitting Condition:       1E-12

   => Auxiliary Basis Set <=

  Basis Set: (CC-PVDZ AUX)
    Blend: CC-PVDZ-JKFIT
    Number of shells: 42
    Number of basis function: 116
    Number of Cartesian functions: 131
    Spherical Harmonics?: true
    Max angular momentum: 3

  Minimum eigenvalue in the overlap matrix is 4.7216242949E-02.
  Using Symmetric Orthogonalization.

  SCF Guess: Superposition of Atomic Densities via on-the-fly atomic UHF.

  ==> Iterations <==

                           Total Energy        Delta E     RMS |[F,P]|

   @DF-RHF iter   0:   -75.64708192429438   -7.56471e+01   6.56145e-02 
   @DF-RHF iter   1:   -75.96870282441523   -3.21621e-01   1.20059e-02 
   @DF-RHF iter   2:   -75.98384299185985   -1.51402e-02   6.63365e-03 DIIS
   @DF-RHF iter   3:   -75.98952194905739   -5.67896e-03   7.88855e-04 DIIS
   @DF-RHF iter   4:   -75.98962853745823   -1.06588e-04   1.31897e-04 DIIS
   @DF-RHF iter   5:   -75.98963313368422   -4.59623e-06   1.79639e-05 DIIS
   @DF-RHF iter   6:   -75.98963327882520   -1.45141e-07   5.52347e-06 DIIS
   @DF-RHF iter   7:   -75.98963329914487   -2.03197e-08   9.05877e-07 DIIS
   @DF-RHF iter   8:   -75.98963329968748   -5.42613e-10   1.12015e-07 DIIS
   @DF-RHF iter   9:   -75.98963329969348   -5.99698e-12   1.54041e-08 DIIS

  ==> Post-Iterations <==

    Orbital Energies (a.u.)
    -----------------------

    Doubly Occupied:                                                      

       1Ap   -20.570838     2Ap    -1.275465     3Ap    -0.637730  
       4Ap    -0.533284     1App   -0.484333  

    Virtual:                                                              

       5Ap     0.157783     6Ap     0.231184     7Ap     0.719604  
       8Ap     0.729800     9Ap     1.169227     2App    1.189214  
      10Ap     1.261250     3App    1.440797    11Ap     1.509636  
       4App    1.676611    12Ap     1.789922    13Ap     1.896500  
      14Ap     2.164598    15Ap     2.205931     5App    3.159451  
       6App    3.226903    16Ap     3.309242    17Ap     3.754758  
      18Ap     3.969927  

    Final Occupation by Irrep:
             Ap   App 
    DOCC [     4,    1 ]

  Energy converged.

  @DF-RHF Final Energy:   -75.98963329969348

   => Energetics <=

    Nuclear Repulsion Energy =              8.0173226930552026
    One-Electron Energy =                -121.0106138649065315
    Two-Electron Energy =                  37.0036578721578522
    DFT Exchange-Correlation Energy =       0.0000000000000000
    Empirical Dispersion Energy =           0.0000000000000000
    PCM Polarization Energy =               0.0000000000000000
    EFP Energy =                            0.0000000000000000
    Total Energy =                        -75.9896332996934802



Properties will be evaluated at   0.000000,   0.000000,   0.000000 Bohr

Properties computed using the SCF density matrix

  Nuclear Dipole Moment: (a.u.)
     X:     0.0083      Y:    -1.0628      Z:     0.0000

  Electronic Dipole Moment: (a.u.)
     X:    -0.0035      Y:     0.2390      Z:     0.0000

  Dipole Moment: (a.u.)
     X:     0.0049      Y:    -0.8238      Z:     0.0000     Total:     0.8238

  Dipole Moment: (Debye)
     X:     0.0124      Y:    -2.0938      Z:     0.0000     Total:     2.0938


*** tstop() called on sebastian at Tue Jul 25 16:11:28 2017
Module time:
	user time   =       0.23 seconds =       0.00 minutes
	system time =       0.00 seconds =       0.00 minutes
	total time  =          0 seconds =       0.00 minutes
Total time:
	user time   =       0.23 seconds =       0.00 minutes
	system time =       0.00 seconds =       0.00 minutes
	total time  =          0 seconds =       0.00 minutes

*** Psi4 exiting successfully. Buy a developer a beer!
