
    -----------------------------------------------------------------------
          Psi4: An Open-Source Ab Initio Electronic Structure Package
                               Psi4 1.1 release

                         Git: Rev {HEAD} add49b9 


    R. M. Parrish, L. A. Burns, D. G. A. Smith, A. C. Simmonett,
    A. E. DePrince III, E. G. Hohenstein, U. Bozkaya, A. Yu. Sokolov,
    R. Di Remigio, R. M. Richard, J. F. Gonthier, A. M. James,
    H. R. McAlexander, A. Kumar, M. Saitow, X. Wang, B. P. Pritchard,
    P. Verma, H. F. Schaefer III, K. Patkowski, R. A. King, E. F. Valeev,
    F. A. Evangelista, J. M. Turney, T. D. Crawford, and C. D. Sherrill,
    J. Chem. Theory Comput. in press (2017).
    (doi: 10.1021/acs.jctc.7b00174)

    -----------------------------------------------------------------------


    Psi4 started on: Tuesday, 25 July 2017 04:11PM

    Process ID:  10496
    PSIDATADIR: /home/matt/psi4conda/share/psi4
    Memory:     500.0 MiB
    Threads:    1
    
  ==> Input File <==

--------------------------------------------------------------------------
molecule {
O      0.00000000000    0.00000000000   -0.06617629540   
H      0.00000000000   -0.88661956800    0.56480976130   
H      0.00000000000    0.89161956800    0.56480976130   

}

set e_convergence 11
set basis         cc-pVDZ
energy('scf')

--------------------------------------------------------------------------

*** tstart() called on sebastian
*** at Tue Jul 25 16:11:42 2017

   => Loading Basis Set <=

    Name: CC-PVDZ
    Role: ORBITAL
    Keyword: BASIS
    atoms 1   entry O          line   190 file /home/matt/psi4conda/share/psi4/basis/cc-pvdz.gbs 
    atoms 2-3 entry H          line    20 file /home/matt/psi4conda/share/psi4/basis/cc-pvdz.gbs 

    There are an even number of electrons - assuming singlet.
    Specify the multiplicity in the molecule input block.


         ---------------------------------------------------------
                                   SCF
            by Justin Turney, Rob Parrish, and Andy Simmonett
                              RHF Reference
                        1 Threads,    500 MiB Core
         ---------------------------------------------------------

  ==> Geometry <==

    Molecular point group: cs
    Full point group: Cs

    Geometry (in Angstrom), charge = 0, multiplicity = 1:

       Center              X                  Y                   Z               Mass       
    ------------   -----------------  -----------------  -----------------  -----------------
           O          0.000279787183     0.070616724572     0.000000000000    15.994914619560
           H          0.886899355183    -0.560369332128     0.000000000000     1.007825032070
           H         -0.891339780817    -0.560369332128     0.000000000000     1.007825032070

  Running in cs symmetry.

  Rotational constants: A =     23.65336  B =     10.57927  C =      7.30984 [cm^-1]
  Rotational constants: A = 709109.74603  B = 317158.39086  C = 219143.61160 [MHz]
  Nuclear repulsion =    8.063458566983041

  Charge       = 0
  Multiplicity = 1
  Electrons    = 10
  Nalpha       = 5
  Nbeta        = 5

  ==> Algorithm <==

  SCF Algorithm Type is DF.
  DIIS enabled.
  MOM disabled.
  Fractional occupation disabled.
  Guess Type is SAD.
  Energy threshold   = 1.00e-11
  Density threshold  = 1.00e-06
  Integral threshold = 0.00e+00

  ==> Primary Basis <==

  Basis Set: CC-PVDZ
    Blend: CC-PVDZ
    Number of shells: 12
    Number of basis function: 24
    Number of Cartesian functions: 25
    Spherical Harmonics?: true
    Max angular momentum: 2

   => Loading Basis Set <=

    Name: (CC-PVDZ AUX)
    Role: JKFIT
    Keyword: DF_BASIS_SCF
    atoms 1   entry O          line   220 file /home/matt/psi4conda/share/psi4/basis/cc-pvdz-jkfit.gbs 
    atoms 2-3 entry H          line    50 file /home/matt/psi4conda/share/psi4/basis/cc-pvdz-jkfit.gbs 

  ==> Pre-Iterations <==

   -------------------------------------------------------
    Irrep   Nso     Nmo     Nalpha   Nbeta   Ndocc  Nsocc
   -------------------------------------------------------
     A'        18      18       0       0       0       0
     A"         6       6       0       0       0       0
   -------------------------------------------------------
    Total      24      24       5       5       5       0
   -------------------------------------------------------

  ==> Integral Setup <==

  ==> DFJK: Density-Fitted J/K Matrices <==

    J tasked:                  Yes
    K tasked:                  Yes
    wK tasked:                  No
    OpenMP threads:              1
    Integrals threads:           1
    Memory (MB):               375
    Algorithm:                Core
    Integral Cache:           NONE
    Schwarz Cutoff:          1E-12
    Fitting Condition:       1E-12

   => Auxiliary Basis Set <=

  Basis Set: (CC-PVDZ AUX)
    Blend: CC-PVDZ-JKFIT
    Number of shells: 42
    Number of basis function: 116
    Number of Cartesian functions: 131
    Spherical Harmonics?: true
    Max angular momentum: 3

  Minimum eigenvalue in the overlap matrix is 4.6723165273E-02.
  Using Symmetric Orthogonalization.

  SCF Guess: Superposition of Atomic Densities via on-the-fly atomic UHF.

  ==> Iterations <==

                           Total Energy        Delta E     RMS |[F,P]|

   @DF-RHF iter   0:   -75.83990879873865   -7.58399e+01   6.76784e-02 
   @DF-RHF iter   1:   -75.92824650051338   -8.83377e-02   1.79322e-02 
   @DF-RHF iter   2:   -75.97501620411221   -4.67697e-02   1.07812e-02 DIIS
   @DF-RHF iter   3:   -75.99037261821952   -1.53564e-02   1.96332e-03 DIIS
   @DF-RHF iter   4:   -75.99184419504192   -1.47158e-03   5.94125e-04 DIIS
   @DF-RHF iter   5:   -75.99200787991329   -1.63685e-04   1.16535e-04 DIIS
   @DF-RHF iter   6:   -75.99201623666676   -8.35675e-06   3.22172e-05 DIIS
   @DF-RHF iter   7:   -75.99201688591495   -6.49248e-07   5.47137e-06 DIIS
   @DF-RHF iter   8:   -75.99201690124957   -1.53346e-08   4.63509e-07 DIIS
   @DF-RHF iter   9:   -75.99201690132176   -7.21911e-11   4.33869e-08 DIIS
   @DF-RHF iter  10:   -75.99201690132227   -5.11591e-13   5.05556e-09 DIIS

  ==> Post-Iterations <==

    Orbital Energies (a.u.)
    -----------------------

    Doubly Occupied:                                                      

       1Ap   -20.569460     2Ap    -1.277277     3Ap    -0.641221  
       4Ap    -0.533457     1App   -0.484279  

    Virtual:                                                              

       5Ap     0.159181     6Ap     0.232625     7Ap     0.724233  
       8Ap     0.731834     9Ap     1.168925     2App    1.190370  
      10Ap     1.259838     3App    1.440341    11Ap     1.511586  
       4App    1.678965    12Ap     1.792710    13Ap     1.897562  
      14Ap     2.178333    15Ap     2.214951     5App    3.161986  
       6App    3.233675    16Ap     3.313489    17Ap     3.765435  
      18Ap     3.974715  

    Final Occupation by Irrep:
             Ap   App 
    DOCC [     4,    1 ]

  Energy converged.

  @DF-RHF Final Energy:   -75.99201690132227

   => Energetics <=

    Nuclear Repulsion Energy =              8.0634585669830408
    One-Electron Energy =                -121.0995643865438041
    Two-Electron Energy =                  37.0440889182384794
    DFT Exchange-Correlation Energy =       0.0000000000000000
    Empirical Dispersion Energy =           0.0000000000000000
    PCM Polarization Energy =               0.0000000000000000
    EFP Energy =                            0.0000000000000000
    Total Energy =                        -75.9920169013222733



Properties will be evaluated at   0.000000,   0.000000,   0.000000 Bohr

Properties computed using the SCF density matrix

  Nuclear Dipole Moment: (a.u.)
     X:    -0.0042      Y:    -1.0503      Z:     0.0000

  Electronic Dipole Moment: (a.u.)
     X:     0.0021      Y:     0.2313      Z:     0.0000

  Dipole Moment: (a.u.)
     X:    -0.0020      Y:    -0.8190      Z:     0.0000     Total:     0.8190

  Dipole Moment: (Debye)
     X:    -0.0052      Y:    -2.0817      Z:     0.0000     Total:     2.0817


*** tstop() called on sebastian at Tue Jul 25 16:11:43 2017
Module time:
	user time   =       0.22 seconds =       0.00 minutes
	system time =       0.01 seconds =       0.00 minutes
	total time  =          1 seconds =       0.02 minutes
Total time:
	user time   =       0.22 seconds =       0.00 minutes
	system time =       0.01 seconds =       0.00 minutes
	total time  =          1 seconds =       0.02 minutes

*** Psi4 exiting successfully. Buy a developer a beer!
