
    -----------------------------------------------------------------------
          Psi4: An Open-Source Ab Initio Electronic Structure Package
                               Psi4 1.1 release

                         Git: Rev {HEAD} add49b9 


    R. M. Parrish, L. A. Burns, D. G. A. Smith, A. C. Simmonett,
    A. E. DePrince III, E. G. Hohenstein, U. Bozkaya, A. Yu. Sokolov,
    R. Di Remigio, R. M. Richard, J. F. Gonthier, A. M. James,
    H. R. McAlexander, A. Kumar, M. Saitow, X. Wang, B. P. Pritchard,
    P. Verma, H. F. Schaefer III, K. Patkowski, R. A. King, E. F. Valeev,
    F. A. Evangelista, J. M. Turney, T. D. Crawford, and C. D. Sherrill,
    J. Chem. Theory Comput. in press (2017).
    (doi: 10.1021/acs.jctc.7b00174)

    -----------------------------------------------------------------------


    Psi4 started on: Tuesday, 25 July 2017 04:11PM

    Process ID:  10514
    PSIDATADIR: /home/matt/psi4conda/share/psi4
    Memory:     500.0 MiB
    Threads:    1
    
  ==> Input File <==

--------------------------------------------------------------------------
molecule {
O      0.00000000000    0.00000000000   -0.07617629540   
H      0.00000000000   -0.89161956800    0.55980976130   
H      0.00000000000    0.89161956800    0.56480976130   

}

set e_convergence 11
set basis         cc-pVDZ
energy('scf')

--------------------------------------------------------------------------

*** tstart() called on sebastian
*** at Tue Jul 25 16:11:44 2017

   => Loading Basis Set <=

    Name: CC-PVDZ
    Role: ORBITAL
    Keyword: BASIS
    atoms 1   entry O          line   190 file /home/matt/psi4conda/share/psi4/basis/cc-pvdz.gbs 
    atoms 2-3 entry H          line    20 file /home/matt/psi4conda/share/psi4/basis/cc-pvdz.gbs 

    There are an even number of electrons - assuming singlet.
    Specify the multiplicity in the molecule input block.


         ---------------------------------------------------------
                                   SCF
            by Justin Turney, Rob Parrish, and Andy Simmonett
                              RHF Reference
                        1 Threads,    500 MiB Core
         ---------------------------------------------------------

  ==> Geometry <==

    Molecular point group: cs
    Full point group: Cs

    Geometry (in Angstrom), charge = 0, multiplicity = 1:

       Center              X                  Y                   Z               Mass       
    ------------   -----------------  -----------------  -----------------  -----------------
           O          0.000000000000     0.071456086122     0.000000000000    15.994914619560
           H          0.891619568000    -0.564529970578     0.000000000000     1.007825032070
           H         -0.891619568000    -0.569529970578     0.000000000000     1.007825032070

  Running in cs symmetry.

  Rotational constants: A =     23.10097  B =     10.52000  C =      7.22829 [cm^-1]
  Rotational constants: A = 692549.62244  B = 315381.78552  C = 216698.80982 [MHz]
  Nuclear repulsion =    8.017357761309707

  Charge       = 0
  Multiplicity = 1
  Electrons    = 10
  Nalpha       = 5
  Nbeta        = 5

  ==> Algorithm <==

  SCF Algorithm Type is DF.
  DIIS enabled.
  MOM disabled.
  Fractional occupation disabled.
  Guess Type is SAD.
  Energy threshold   = 1.00e-11
  Density threshold  = 1.00e-06
  Integral threshold = 0.00e+00

  ==> Primary Basis <==

  Basis Set: CC-PVDZ
    Blend: CC-PVDZ
    Number of shells: 12
    Number of basis function: 24
    Number of Cartesian functions: 25
    Spherical Harmonics?: true
    Max angular momentum: 2

   => Loading Basis Set <=

    Name: (CC-PVDZ AUX)
    Role: JKFIT
    Keyword: DF_BASIS_SCF
    atoms 1   entry O          line   220 file /home/matt/psi4conda/share/psi4/basis/cc-pvdz-jkfit.gbs 
    atoms 2-3 entry H          line    50 file /home/matt/psi4conda/share/psi4/basis/cc-pvdz-jkfit.gbs 

  ==> Pre-Iterations <==

   -------------------------------------------------------
    Irrep   Nso     Nmo     Nalpha   Nbeta   Ndocc  Nsocc
   -------------------------------------------------------
     A'        18      18       0       0       0       0
     A"         6       6       0       0       0       0
   -------------------------------------------------------
    Total      24      24       5       5       5       0
   -------------------------------------------------------

  ==> Integral Setup <==

  ==> DFJK: Density-Fitted J/K Matrices <==

    J tasked:                  Yes
    K tasked:                  Yes
    wK tasked:                  No
    OpenMP threads:              1
    Integrals threads:           1
    Memory (MB):               375
    Algorithm:                Core
    Integral Cache:           NONE
    Schwarz Cutoff:          1E-12
    Fitting Condition:       1E-12

   => Auxiliary Basis Set <=

  Basis Set: (CC-PVDZ AUX)
    Blend: CC-PVDZ-JKFIT
    Number of shells: 42
    Number of basis function: 116
    Number of Cartesian functions: 131
    Spherical Harmonics?: true
    Max angular momentum: 3

  Minimum eigenvalue in the overlap matrix is 4.7216945174E-02.
  Using Symmetric Orthogonalization.

  SCF Guess: Superposition of Atomic Densities via on-the-fly atomic UHF.

  ==> Iterations <==

                           Total Energy        Delta E     RMS |[F,P]|

   @DF-RHF iter   0:   -75.73579112818781   -7.57358e+01   6.63669e-02 
   @DF-RHF iter   1:   -75.94696108121141   -2.11170e-01   1.50490e-02 
   @DF-RHF iter   2:   -75.97778202773033   -3.08209e-02   9.01661e-03 DIIS
   @DF-RHF iter   3:   -75.98849995226441   -1.07179e-02   1.45782e-03 DIIS
   @DF-RHF iter   4:   -75.98948231676758   -9.82365e-04   5.33705e-04 DIIS
   @DF-RHF iter   5:   -75.98963089139268   -1.48575e-04   1.15163e-04 DIIS
   @DF-RHF iter   6:   -75.98963971402867   -8.82264e-06   2.23054e-05 DIIS
   @DF-RHF iter   7:   -75.98964002282447   -3.08796e-07   3.58826e-06 DIIS
   @DF-RHF iter   8:   -75.98964002831792   -5.49345e-09   4.64412e-07 DIIS
   @DF-RHF iter   9:   -75.98964002838173   -6.38067e-11   3.30261e-08 DIIS
   @DF-RHF iter  10:   -75.98964002838213   -3.97904e-13   4.96742e-09 DIIS

  ==> Post-Iterations <==

    Orbital Energies (a.u.)
    -----------------------

    Doubly Occupied:                                                      

       1Ap   -20.570836     2Ap    -1.275463     3Ap    -0.637734  
       4Ap    -0.533284     1App   -0.484332  

    Virtual:                                                              

       5Ap     0.157789     6Ap     0.231184     7Ap     0.719772  
       8Ap     0.729632     9Ap     1.169233     2App    1.189218  
      10Ap     1.261237     3App    1.440790    11Ap     1.509643  
       4App    1.676618    12Ap     1.789928    13Ap     1.896519  
      14Ap     2.164893    15Ap     2.205632     5App    3.159492  
       6App    3.226867    16Ap     3.309236    17Ap     3.754812  
      18Ap     3.969898  

    Final Occupation by Irrep:
             Ap   App 
    DOCC [     4,    1 ]

  Energy converged.

  @DF-RHF Final Energy:   -75.98964002838213

   => Energetics <=

    Nuclear Repulsion Energy =              8.0173577613097073
    One-Electron Energy =                -121.0106990513302208
    Two-Electron Energy =                  37.0037012616383834
    DFT Exchange-Correlation Energy =       0.0000000000000000
    Empirical Dispersion Energy =           0.0000000000000000
    PCM Polarization Energy =               0.0000000000000000
    EFP Energy =                            0.0000000000000000
    Total Energy =                        -75.9896400283821265



Properties will be evaluated at   0.000000,   0.000000,   0.000000 Bohr

Properties computed using the SCF density matrix

  Nuclear Dipole Moment: (a.u.)
     X:     0.0000      Y:    -1.0628      Z:     0.0000

  Electronic Dipole Moment: (a.u.)
     X:     0.0009      Y:     0.2390      Z:     0.0000

  Dipole Moment: (a.u.)
     X:     0.0009      Y:    -0.8238      Z:     0.0000     Total:     0.8238

  Dipole Moment: (Debye)
     X:     0.0022      Y:    -2.0938      Z:     0.0000     Total:     2.0938


*** tstop() called on sebastian at Tue Jul 25 16:11:44 2017
Module time:
	user time   =       0.23 seconds =       0.00 minutes
	system time =       0.01 seconds =       0.00 minutes
	total time  =          0 seconds =       0.00 minutes
Total time:
	user time   =       0.23 seconds =       0.00 minutes
	system time =       0.01 seconds =       0.00 minutes
	total time  =          0 seconds =       0.00 minutes

*** Psi4 exiting successfully. Buy a developer a beer!
