
    -----------------------------------------------------------------------
          Psi4: An Open-Source Ab Initio Electronic Structure Package
                               Psi4 1.1 release

                         Git: Rev {HEAD} add49b9 


    R. M. Parrish, L. A. Burns, D. G. A. Smith, A. C. Simmonett,
    A. E. DePrince III, E. G. Hohenstein, U. Bozkaya, A. Yu. Sokolov,
    R. Di Remigio, R. M. Richard, J. F. Gonthier, A. M. James,
    H. R. McAlexander, A. Kumar, M. Saitow, X. Wang, B. P. Pritchard,
    P. Verma, H. F. Schaefer III, K. Patkowski, R. A. King, E. F. Valeev,
    F. A. Evangelista, J. M. Turney, T. D. Crawford, and C. D. Sherrill,
    J. Chem. Theory Comput. in press (2017).
    (doi: 10.1021/acs.jctc.7b00174)

    -----------------------------------------------------------------------


    Psi4 started on: Tuesday, 25 July 2017 04:11PM

    Process ID:  10376
    PSIDATADIR: /home/matt/psi4conda/share/psi4
    Memory:     500.0 MiB
    Threads:    1
    
  ==> Input File <==

--------------------------------------------------------------------------
molecule {
O      0.00000000000    0.00000000000   -0.07617629540   
H      0.00000000000   -0.89161956800    0.56480976130   
H     -0.00500000000    0.89161956800    0.56480976130   

}

set e_convergence 11
set basis         cc-pVDZ
energy('scf')

--------------------------------------------------------------------------

*** tstart() called on sebastian
*** at Tue Jul 25 16:11:33 2017

   => Loading Basis Set <=

    Name: CC-PVDZ
    Role: ORBITAL
    Keyword: BASIS
    atoms 1   entry O          line   190 file /home/matt/psi4conda/share/psi4/basis/cc-pvdz.gbs 
    atoms 2-3 entry H          line    20 file /home/matt/psi4conda/share/psi4/basis/cc-pvdz.gbs 

    There are an even number of electrons - assuming singlet.
    Specify the multiplicity in the molecule input block.


         ---------------------------------------------------------
                                   SCF
            by Justin Turney, Rob Parrish, and Andy Simmonett
                              RHF Reference
                        1 Threads,    500 MiB Core
         ---------------------------------------------------------

  ==> Geometry <==

    Molecular point group: cs
    Full point group: Cs

    Geometry (in Angstrom), charge = 0, multiplicity = 1:

       Center              X                  Y                   Z               Mass       
    ------------   -----------------  -----------------  -----------------  -----------------
           O          0.071736418922     0.000000000000     0.000000000000    15.994914619560
           H         -0.569244762533    -0.891623072798     0.000000000000     1.007825032070
           H         -0.569264263589     0.891623072798     0.000000000000     1.007825032070

  Running in cs symmetry.

  Rotational constants: A =     22.92044  B =     10.52007  C =      7.21056 [cm^-1]
  Rotational constants: A = 687137.56471  B = 315383.85881  C = 216167.04801 [MHz]
  Nuclear repulsion =    8.007070668746415

  Charge       = 0
  Multiplicity = 1
  Electrons    = 10
  Nalpha       = 5
  Nbeta        = 5

  ==> Algorithm <==

  SCF Algorithm Type is DF.
  DIIS enabled.
  MOM disabled.
  Fractional occupation disabled.
  Guess Type is SAD.
  Energy threshold   = 1.00e-11
  Density threshold  = 1.00e-06
  Integral threshold = 0.00e+00

  ==> Primary Basis <==

  Basis Set: CC-PVDZ
    Blend: CC-PVDZ
    Number of shells: 12
    Number of basis function: 24
    Number of Cartesian functions: 25
    Spherical Harmonics?: true
    Max angular momentum: 2

   => Loading Basis Set <=

    Name: (CC-PVDZ AUX)
    Role: JKFIT
    Keyword: DF_BASIS_SCF
    atoms 1   entry O          line   220 file /home/matt/psi4conda/share/psi4/basis/cc-pvdz-jkfit.gbs 
    atoms 2-3 entry H          line    50 file /home/matt/psi4conda/share/psi4/basis/cc-pvdz-jkfit.gbs 

  ==> Pre-Iterations <==

   -------------------------------------------------------
    Irrep   Nso     Nmo     Nalpha   Nbeta   Ndocc  Nsocc
   -------------------------------------------------------
     A'        18      18       0       0       0       0
     A"         6       6       0       0       0       0
   -------------------------------------------------------
    Total      24      24       5       5       5       0
   -------------------------------------------------------

  ==> Integral Setup <==

  ==> DFJK: Density-Fitted J/K Matrices <==

    J tasked:                  Yes
    K tasked:                  Yes
    wK tasked:                  No
    OpenMP threads:              1
    Integrals threads:           1
    Memory (MB):               375
    Algorithm:                Core
    Integral Cache:           NONE
    Schwarz Cutoff:          1E-12
    Fitting Condition:       1E-12

   => Auxiliary Basis Set <=

  Basis Set: (CC-PVDZ AUX)
    Blend: CC-PVDZ-JKFIT
    Number of shells: 42
    Number of basis function: 116
    Number of Cartesian functions: 131
    Spherical Harmonics?: true
    Max angular momentum: 3

  Minimum eigenvalue in the overlap matrix is 4.7298594017E-02.
  Using Symmetric Orthogonalization.

  SCF Guess: Superposition of Atomic Densities via on-the-fly atomic UHF.

  ==> Iterations <==

                           Total Energy        Delta E     RMS |[F,P]|

   @DF-RHF iter   0:   -75.74928154122159   -7.57493e+01   6.62507e-02 
   @DF-RHF iter   1:   -75.94495530816899   -1.95674e-01   1.51702e-02 
   @DF-RHF iter   2:   -75.97691354106928   -3.19582e-02   9.10301e-03 DIIS
   @DF-RHF iter   3:   -75.98788430580103   -1.09708e-02   1.52033e-03 DIIS
   @DF-RHF iter   4:   -75.98896326828462   -1.07896e-03   5.50601e-04 DIIS
   @DF-RHF iter   5:   -75.98912150821184   -1.58240e-04   1.17750e-04 DIIS
   @DF-RHF iter   6:   -75.98913074356703   -9.23536e-06   2.33315e-05 DIIS
   @DF-RHF iter   7:   -75.98913108238746   -3.38820e-07   3.71714e-06 DIIS
   @DF-RHF iter   8:   -75.98913108826812   -5.88066e-09   4.83072e-07 DIIS
   @DF-RHF iter   9:   -75.98913108833520   -6.70752e-11   3.49137e-08 DIIS
   @DF-RHF iter  10:   -75.98913108833553   -3.26850e-13   5.44331e-09 DIIS

  ==> Post-Iterations <==

    Orbital Energies (a.u.)
    -----------------------

    Doubly Occupied:                                                      

       1Ap   -20.571225     2Ap    -1.275122     3Ap    -0.636813  
       4Ap    -0.533434     1App   -0.484396  

    Virtual:                                                              

       5Ap     0.157489     6Ap     0.230829     7Ap     0.718512  
       8Ap     0.729453     9Ap     1.169326     2App    1.188905  
      10Ap     1.261693     3App    1.441108    11Ap     1.508504  
       4App    1.675746    12Ap     1.789639    13Ap     1.896183  
      14Ap     2.161684    15Ap     2.203456     5App    3.159274  
       6App    3.225014    16Ap     3.308876    17Ap     3.751668  
      18Ap     3.969229  

    Final Occupation by Irrep:
             Ap   App 
    DOCC [     4,    1 ]

  Energy converged.

  @DF-RHF Final Energy:   -75.98913108833553

   => Energetics <=

    Nuclear Repulsion Energy =              8.0070706687464153
    One-Electron Energy =                -120.9904233455126246
    Two-Electron Energy =                  36.9942215884306833
    DFT Exchange-Correlation Energy =       0.0000000000000000
    Empirical Dispersion Energy =           0.0000000000000000
    PCM Polarization Energy =               0.0000000000000000
    EFP Energy =                            0.0000000000000000
    Total Energy =                        -75.9891310883355118



Properties will be evaluated at   0.000000,   0.000000,   0.000000 Bohr

Properties computed using the SCF density matrix

  Nuclear Dipole Moment: (a.u.)
     X:    -1.0670      Y:    -0.0000      Z:     0.0000

  Electronic Dipole Moment: (a.u.)
     X:     0.2414      Y:    -0.0000      Z:     0.0000

  Dipole Moment: (a.u.)
     X:    -0.8255      Y:    -0.0000      Z:     0.0000     Total:     0.8255

  Dipole Moment: (Debye)
     X:    -2.0983      Y:    -0.0000      Z:     0.0000     Total:     2.0983


*** tstop() called on sebastian at Tue Jul 25 16:11:33 2017
Module time:
	user time   =       0.23 seconds =       0.00 minutes
	system time =       0.00 seconds =       0.00 minutes
	total time  =          0 seconds =       0.00 minutes
Total time:
	user time   =       0.23 seconds =       0.00 minutes
	system time =       0.00 seconds =       0.00 minutes
	total time  =          0 seconds =       0.00 minutes

*** Psi4 exiting successfully. Buy a developer a beer!
