
    -----------------------------------------------------------------------
          Psi4: An Open-Source Ab Initio Electronic Structure Package
                               Psi4 1.1 release

                         Git: Rev {HEAD} add49b9 


    R. M. Parrish, L. A. Burns, D. G. A. Smith, A. C. Simmonett,
    A. E. DePrince III, E. G. Hohenstein, U. Bozkaya, A. Yu. Sokolov,
    R. Di Remigio, R. M. Richard, J. F. Gonthier, A. M. James,
    H. R. McAlexander, A. Kumar, M. Saitow, X. Wang, B. P. Pritchard,
    P. Verma, H. F. Schaefer III, K. Patkowski, R. A. King, E. F. Valeev,
    F. A. Evangelista, J. M. Turney, T. D. Crawford, and C. D. Sherrill,
    J. Chem. Theory Comput. in press (2017).
    (doi: 10.1021/acs.jctc.7b00174)

    -----------------------------------------------------------------------


    Psi4 started on: Tuesday, 25 July 2017 04:11PM

    Process ID:  10219
    PSIDATADIR: /home/matt/psi4conda/share/psi4
    Memory:     500.0 MiB
    Threads:    1
    
  ==> Input File <==

--------------------------------------------------------------------------
molecule {
O      0.00000000000    0.00000000000   -0.07617629540   
H      0.00000000000   -0.89161956800    0.56480976130   
H      0.00000000000    0.88661956800    0.56480976130   

}

set e_convergence 11
set basis         cc-pVDZ
energy('scf')

--------------------------------------------------------------------------

*** tstart() called on sebastian
*** at Tue Jul 25 16:11:20 2017

   => Loading Basis Set <=

    Name: CC-PVDZ
    Role: ORBITAL
    Keyword: BASIS
    atoms 1   entry O          line   190 file /home/matt/psi4conda/share/psi4/basis/cc-pvdz.gbs 
    atoms 2-3 entry H          line    20 file /home/matt/psi4conda/share/psi4/basis/cc-pvdz.gbs 

    There are an even number of electrons - assuming singlet.
    Specify the multiplicity in the molecule input block.


         ---------------------------------------------------------
                                   SCF
            by Justin Turney, Rob Parrish, and Andy Simmonett
                              RHF Reference
                        1 Threads,    500 MiB Core
         ---------------------------------------------------------

  ==> Geometry <==

    Molecular point group: cs
    Full point group: Cs

    Geometry (in Angstrom), charge = 0, multiplicity = 1:

       Center              X                  Y                   Z               Mass       
    ------------   -----------------  -----------------  -----------------  -----------------
           O         -0.000279787183     0.071735873305     0.000000000000    15.994914619560
           H          0.891339780817    -0.569250183395     0.000000000000     1.007825032070
           H         -0.886899355183    -0.569250183395     0.000000000000     1.007825032070

  Running in cs symmetry.

  Rotational constants: A =     22.92109  B =     10.57926  C =      7.23838 [cm^-1]
  Rotational constants: A = 687156.97756  B = 317158.28394  C = 217001.11126 [MHz]
  Nuclear repulsion =    8.022238157561258

  Charge       = 0
  Multiplicity = 1
  Electrons    = 10
  Nalpha       = 5
  Nbeta        = 5

  ==> Algorithm <==

  SCF Algorithm Type is DF.
  DIIS enabled.
  MOM disabled.
  Fractional occupation disabled.
  Guess Type is SAD.
  Energy threshold   = 1.00e-11
  Density threshold  = 1.00e-06
  Integral threshold = 0.00e+00

  ==> Primary Basis <==

  Basis Set: CC-PVDZ
    Blend: CC-PVDZ
    Number of shells: 12
    Number of basis function: 24
    Number of Cartesian functions: 25
    Spherical Harmonics?: true
    Max angular momentum: 2

   => Loading Basis Set <=

    Name: (CC-PVDZ AUX)
    Role: JKFIT
    Keyword: DF_BASIS_SCF
    atoms 1   entry O          line   220 file /home/matt/psi4conda/share/psi4/basis/cc-pvdz-jkfit.gbs 
    atoms 2-3 entry H          line    50 file /home/matt/psi4conda/share/psi4/basis/cc-pvdz-jkfit.gbs 

  ==> Pre-Iterations <==

   -------------------------------------------------------
    Irrep   Nso     Nmo     Nalpha   Nbeta   Ndocc  Nsocc
   -------------------------------------------------------
     A'        18      18       0       0       0       0
     A"         6       6       0       0       0       0
   -------------------------------------------------------
    Total      24      24       5       5       5       0
   -------------------------------------------------------

  ==> Integral Setup <==

  ==> DFJK: Density-Fitted J/K Matrices <==

    J tasked:                  Yes
    K tasked:                  Yes
    wK tasked:                  No
    OpenMP threads:              1
    Integrals threads:           1
    Memory (MB):               375
    Algorithm:                Core
    Integral Cache:           NONE
    Schwarz Cutoff:          1E-12
    Fitting Condition:       1E-12

   => Auxiliary Basis Set <=

  Basis Set: (CC-PVDZ AUX)
    Blend: CC-PVDZ-JKFIT
    Number of shells: 42
    Number of basis function: 116
    Number of Cartesian functions: 131
    Spherical Harmonics?: true
    Max angular momentum: 3

  Minimum eigenvalue in the overlap matrix is 4.7042480554E-02.
  Using Symmetric Orthogonalization.

  SCF Guess: Superposition of Atomic Densities via on-the-fly atomic UHF.

  ==> Iterations <==

                           Total Energy        Delta E     RMS |[F,P]|

   @DF-RHF iter   0:   -75.67125690488587   -7.56713e+01   6.56746e-02 
   @DF-RHF iter   1:   -75.97138167657566   -3.00125e-01   1.12721e-02 
   @DF-RHF iter   2:   -75.98516724163726   -1.37856e-02   5.91245e-03 DIIS
   @DF-RHF iter   3:   -75.98982300765698   -4.65577e-03   9.48972e-04 DIIS
   @DF-RHF iter   4:   -75.99000025132577   -1.77244e-04   2.07189e-04 DIIS
   @DF-RHF iter   5:   -75.99002164536564   -2.13940e-05   6.19726e-05 DIIS
   @DF-RHF iter   6:   -75.99002415886876   -2.51350e-06   1.13998e-05 DIIS
   @DF-RHF iter   7:   -75.99002424117649   -8.23077e-08   1.36622e-06 DIIS
   @DF-RHF iter   8:   -75.99002424206429   -8.87809e-10   2.33945e-07 DIIS
   @DF-RHF iter   9:   -75.99002424208587   -2.15721e-11   3.08506e-08 DIIS
   @DF-RHF iter  10:   -75.99002424208612   -2.55795e-13   3.08080e-09 DIIS

  ==> Post-Iterations <==

    Orbital Energies (a.u.)
    -----------------------

    Doubly Occupied:                                                      

       1Ap   -20.571014     2Ap    -1.275904     3Ap    -0.637523  
       4Ap    -0.534066     1App   -0.484530  

    Virtual:                                                              

       5Ap     0.157980     6Ap     0.231239     7Ap     0.718918  
       8Ap     0.731356     9Ap     1.169272     2App    1.189132  
      10Ap     1.261664     3App    1.441625    11Ap     1.506996  
       4App    1.675421    12Ap     1.791562    13Ap     1.896286  
      14Ap     2.164960    15Ap     2.206591     5App    3.161096  
       6App    3.226302    16Ap     3.312217    17Ap     3.752651  
      18Ap     3.972259  

    Final Occupation by Irrep:
             Ap   App 
    DOCC [     4,    1 ]

  Energy converged.

  @DF-RHF Final Energy:   -75.99002424208612

   => Energetics <=

    Nuclear Repulsion Energy =              8.0222381575612580
    One-Electron Energy =                -121.0184501920908247
    Two-Electron Energy =                  37.0061877924434270
    DFT Exchange-Correlation Energy =       0.0000000000000000
    Empirical Dispersion Energy =           0.0000000000000000
    PCM Polarization Energy =               0.0000000000000000
    EFP Energy =                            0.0000000000000000
    Total Energy =                        -75.9900242420861360



Properties will be evaluated at   0.000000,   0.000000,   0.000000 Bohr

Properties computed using the SCF density matrix

  Nuclear Dipole Moment: (a.u.)
     X:     0.0042      Y:    -1.0670      Z:     0.0000

  Electronic Dipole Moment: (a.u.)
     X:    -0.0022      Y:     0.2408      Z:     0.0000

  Dipole Moment: (a.u.)
     X:     0.0020      Y:    -0.8261      Z:     0.0000     Total:     0.8261

  Dipole Moment: (Debye)
     X:     0.0050      Y:    -2.0999      Z:     0.0000     Total:     2.0999


*** tstop() called on sebastian at Tue Jul 25 16:11:21 2017
Module time:
	user time   =       0.22 seconds =       0.00 minutes
	system time =       0.01 seconds =       0.00 minutes
	total time  =          1 seconds =       0.02 minutes
Total time:
	user time   =       0.22 seconds =       0.00 minutes
	system time =       0.01 seconds =       0.00 minutes
	total time  =          1 seconds =       0.02 minutes

*** Psi4 exiting successfully. Buy a developer a beer!
