
    -----------------------------------------------------------------------
          Psi4: An Open-Source Ab Initio Electronic Structure Package
                               Psi4 1.1 release

                         Git: Rev {HEAD} add49b9 


    R. M. Parrish, L. A. Burns, D. G. A. Smith, A. C. Simmonett,
    A. E. DePrince III, E. G. Hohenstein, U. Bozkaya, A. Yu. Sokolov,
    R. Di Remigio, R. M. Richard, J. F. Gonthier, A. M. James,
    H. R. McAlexander, A. Kumar, M. Saitow, X. Wang, B. P. Pritchard,
    P. Verma, H. F. Schaefer III, K. Patkowski, R. A. King, E. F. Valeev,
    F. A. Evangelista, J. M. Turney, T. D. Crawford, and C. D. Sherrill,
    J. Chem. Theory Comput. in press (2017).
    (doi: 10.1021/acs.jctc.7b00174)

    -----------------------------------------------------------------------


    Psi4 started on: Tuesday, 25 July 2017 04:11PM

    Process ID:  10562
    PSIDATADIR: /home/matt/psi4conda/share/psi4
    Memory:     500.0 MiB
    Threads:    1
    
  ==> Input File <==

--------------------------------------------------------------------------
molecule {
O      0.00000000000    0.00000000000   -0.06617629540   
H      0.00000000000   -0.89161956800    0.56480976130   
H      0.00000000000    0.89661956800    0.56480976130   

}

set e_convergence 11
set basis         cc-pVDZ
energy('scf')

--------------------------------------------------------------------------

*** tstart() called on sebastian
*** at Tue Jul 25 16:11:48 2017

   => Loading Basis Set <=

    Name: CC-PVDZ
    Role: ORBITAL
    Keyword: BASIS
    atoms 1   entry O          line   190 file /home/matt/psi4conda/share/psi4/basis/cc-pvdz.gbs 
    atoms 2-3 entry H          line    20 file /home/matt/psi4conda/share/psi4/basis/cc-pvdz.gbs 

    There are an even number of electrons - assuming singlet.
    Specify the multiplicity in the molecule input block.


         ---------------------------------------------------------
                                   SCF
            by Justin Turney, Rob Parrish, and Andy Simmonett
                              RHF Reference
                        1 Threads,    500 MiB Core
         ---------------------------------------------------------

  ==> Geometry <==

    Molecular point group: cs
    Full point group: Cs

    Geometry (in Angstrom), charge = 0, multiplicity = 1:

       Center              X                  Y                   Z               Mass       
    ------------   -----------------  -----------------  -----------------  -----------------
           O          0.000279787183     0.070616724572     0.000000000000    15.994914619560
           H          0.891899355183    -0.560369332128     0.000000000000     1.007825032070
           H         -0.896339780817    -0.560369332128     0.000000000000     1.007825032070

  Running in cs symmetry.

  Rotational constants: A =     23.65335  B =     10.46128  C =      7.25332 [cm^-1]
  Rotational constants: A = 709109.56590  B = 313621.22995  C = 217449.02484 [MHz]
  Nuclear repulsion =    8.032831601011875

  Charge       = 0
  Multiplicity = 1
  Electrons    = 10
  Nalpha       = 5
  Nbeta        = 5

  ==> Algorithm <==

  SCF Algorithm Type is DF.
  DIIS enabled.
  MOM disabled.
  Fractional occupation disabled.
  Guess Type is SAD.
  Energy threshold   = 1.00e-11
  Density threshold  = 1.00e-06
  Integral threshold = 0.00e+00

  ==> Primary Basis <==

  Basis Set: CC-PVDZ
    Blend: CC-PVDZ
    Number of shells: 12
    Number of basis function: 24
    Number of Cartesian functions: 25
    Spherical Harmonics?: true
    Max angular momentum: 2

   => Loading Basis Set <=

    Name: (CC-PVDZ AUX)
    Role: JKFIT
    Keyword: DF_BASIS_SCF
    atoms 1   entry O          line   220 file /home/matt/psi4conda/share/psi4/basis/cc-pvdz-jkfit.gbs 
    atoms 2-3 entry H          line    50 file /home/matt/psi4conda/share/psi4/basis/cc-pvdz-jkfit.gbs 

  ==> Pre-Iterations <==

   -------------------------------------------------------
    Irrep   Nso     Nmo     Nalpha   Nbeta   Ndocc  Nsocc
   -------------------------------------------------------
     A'        18      18       0       0       0       0
     A"         6       6       0       0       0       0
   -------------------------------------------------------
    Total      24      24       5       5       5       0
   -------------------------------------------------------

  ==> Integral Setup <==

  ==> DFJK: Density-Fitted J/K Matrices <==

    J tasked:                  Yes
    K tasked:                  Yes
    wK tasked:                  No
    OpenMP threads:              1
    Integrals threads:           1
    Memory (MB):               375
    Algorithm:                Core
    Integral Cache:           NONE
    Schwarz Cutoff:          1E-12
    Fitting Condition:       1E-12

   => Auxiliary Basis Set <=

  Basis Set: (CC-PVDZ AUX)
    Blend: CC-PVDZ-JKFIT
    Number of shells: 42
    Number of basis function: 116
    Number of Cartesian functions: 131
    Spherical Harmonics?: true
    Max angular momentum: 3

  Minimum eigenvalue in the overlap matrix is 4.7233930020E-02.
  Using Symmetric Orthogonalization.

  SCF Guess: Superposition of Atomic Densities via on-the-fly atomic UHF.

  ==> Iterations <==

                           Total Energy        Delta E     RMS |[F,P]|

   @DF-RHF iter   0:   -75.83272656174792   -7.58327e+01   6.70854e-02 
   @DF-RHF iter   1:   -75.92607091977263   -9.33444e-02   1.79585e-02 
   @DF-RHF iter   2:   -75.97298202268880   -4.69111e-02   1.08600e-02 DIIS
   @DF-RHF iter   3:   -75.98856655278944   -1.55845e-02   1.96991e-03 DIIS
   @DF-RHF iter   4:   -75.99005701769060   -1.49046e-03   5.97773e-04 DIIS
   @DF-RHF iter   5:   -75.99022348561554   -1.66468e-04   1.18001e-04 DIIS
   @DF-RHF iter   6:   -75.99023210666620   -8.62105e-06   3.28860e-05 DIIS
   @DF-RHF iter   7:   -75.99023278820620   -6.81540e-07   5.58645e-06 DIIS
   @DF-RHF iter   8:   -75.99023280422369   -1.60175e-08   4.69354e-07 DIIS
   @DF-RHF iter   9:   -75.99023280429763   -7.39391e-11   4.41118e-08 DIIS
   @DF-RHF iter  10:   -75.99023280429812   -4.83169e-13   5.15958e-09 DIIS

  ==> Post-Iterations <==

    Orbital Energies (a.u.)
    -----------------------

    Doubly Occupied:                                                      

       1Ap   -20.569879     2Ap    -1.275694     3Ap    -0.639766  
       4Ap    -0.532194     1App   -0.484003  

    Virtual:                                                              

       5Ap     0.158184     6Ap     0.231821     7Ap     0.723057  
       8Ap     0.728336     9Ap     1.169044     2App    1.189922  
      10Ap     1.259914     3App    1.439335    11Ap     1.514480  
       4App    1.679543    12Ap     1.788874    13Ap     1.897388  
      14Ap     2.171274    15Ap     2.208994     5App    3.158273  
       6App    3.231125    16Ap     3.306688    17Ap     3.763488  
      18Ap     3.968694  

    Final Occupation by Irrep:
             Ap   App 
    DOCC [     4,    1 ]

  Energy converged.

  @DF-RHF Final Energy:   -75.99023280429812

   => Energetics <=

    Nuclear Repulsion Energy =              8.0328316010118748
    One-Electron Energy =                -121.0430560335412054
    Two-Electron Energy =                  37.0199916282312103
    DFT Exchange-Correlation Energy =       0.0000000000000000
    Empirical Dispersion Energy =           0.0000000000000000
    PCM Polarization Energy =               0.0000000000000000
    EFP Energy =                            0.0000000000000000
    Total Energy =                        -75.9902328042981168



Properties will be evaluated at   0.000000,   0.000000,   0.000000 Bohr

Properties computed using the SCF density matrix

  Nuclear Dipole Moment: (a.u.)
     X:    -0.0042      Y:    -1.0503      Z:     0.0000

  Electronic Dipole Moment: (a.u.)
     X:     0.0021      Y:     0.2325      Z:     0.0000

  Dipole Moment: (a.u.)
     X:    -0.0020      Y:    -0.8178      Z:     0.0000     Total:     0.8178

  Dipole Moment: (Debye)
     X:    -0.0052      Y:    -2.0786      Z:     0.0000     Total:     2.0786


*** tstop() called on sebastian at Tue Jul 25 16:11:48 2017
Module time:
	user time   =       0.22 seconds =       0.00 minutes
	system time =       0.01 seconds =       0.00 minutes
	total time  =          0 seconds =       0.00 minutes
Total time:
	user time   =       0.22 seconds =       0.00 minutes
	system time =       0.01 seconds =       0.00 minutes
	total time  =          0 seconds =       0.00 minutes

*** Psi4 exiting successfully. Buy a developer a beer!
