
    -----------------------------------------------------------------------
          Psi4: An Open-Source Ab Initio Electronic Structure Package
                               Psi4 1.1 release

                         Git: Rev {HEAD} add49b9 


    R. M. Parrish, L. A. Burns, D. G. A. Smith, A. C. Simmonett,
    A. E. DePrince III, E. G. Hohenstein, U. Bozkaya, A. Yu. Sokolov,
    R. Di Remigio, R. M. Richard, J. F. Gonthier, A. M. James,
    H. R. McAlexander, A. Kumar, M. Saitow, X. Wang, B. P. Pritchard,
    P. Verma, H. F. Schaefer III, K. Patkowski, R. A. King, E. F. Valeev,
    F. A. Evangelista, J. M. Turney, T. D. Crawford, and C. D. Sherrill,
    J. Chem. Theory Comput. in press (2017).
    (doi: 10.1021/acs.jctc.7b00174)

    -----------------------------------------------------------------------


    Psi4 started on: Tuesday, 25 July 2017 04:11PM

    Process ID:  10159
    PSIDATADIR: /home/matt/psi4conda/share/psi4
    Memory:     500.0 MiB
    Threads:    1
    
  ==> Input File <==

--------------------------------------------------------------------------
molecule {
O      0.00000000000    0.00000000000   -0.07117629540   
H      0.00000000000   -0.89661956800    0.55980976130   
H      0.00000000000    0.89161956800    0.56480976130   

}

set e_convergence 11
set basis         cc-pVDZ
energy('scf')

--------------------------------------------------------------------------

*** tstart() called on sebastian
*** at Tue Jul 25 16:11:16 2017

   => Loading Basis Set <=

    Name: CC-PVDZ
    Role: ORBITAL
    Keyword: BASIS
    atoms 1   entry O          line   190 file /home/matt/psi4conda/share/psi4/basis/cc-pvdz.gbs 
    atoms 2-3 entry H          line    20 file /home/matt/psi4conda/share/psi4/basis/cc-pvdz.gbs 

    There are an even number of electrons - assuming singlet.
    Specify the multiplicity in the molecule input block.


         ---------------------------------------------------------
                                   SCF
            by Justin Turney, Rob Parrish, and Andy Simmonett
                              RHF Reference
                        1 Threads,    500 MiB Core
         ---------------------------------------------------------

  ==> Geometry <==

    Molecular point group: cs
    Full point group: Cs

    Geometry (in Angstrom), charge = 0, multiplicity = 1:

       Center              X                  Y                   Z               Mass       
    ------------   -----------------  -----------------  -----------------  -----------------
           O         -0.000279787183     0.070896511755     0.000000000000    15.994914619560
           H          0.896339780817    -0.560089544945     0.000000000000     1.007825032070
           H         -0.891899355183    -0.565089544945     0.000000000000     1.007825032070

  Running in cs symmetry.

  Rotational constants: A =     23.46642  B =     10.46132  C =      7.23566 [cm^-1]
  Rotational constants: A = 703505.69135  B = 313622.34845  C = 216919.69785 [MHz]
  Nuclear repulsion =    8.022582377360663

  Charge       = 0
  Multiplicity = 1
  Electrons    = 10
  Nalpha       = 5
  Nbeta        = 5

  ==> Algorithm <==

  SCF Algorithm Type is DF.
  DIIS enabled.
  MOM disabled.
  Fractional occupation disabled.
  Guess Type is SAD.
  Energy threshold   = 1.00e-11
  Density threshold  = 1.00e-06
  Integral threshold = 0.00e+00

  ==> Primary Basis <==

  Basis Set: CC-PVDZ
    Blend: CC-PVDZ
    Number of shells: 12
    Number of basis function: 24
    Number of Cartesian functions: 25
    Spherical Harmonics?: true
    Max angular momentum: 2

   => Loading Basis Set <=

    Name: (CC-PVDZ AUX)
    Role: JKFIT
    Keyword: DF_BASIS_SCF
    atoms 1   entry O          line   220 file /home/matt/psi4conda/share/psi4/basis/cc-pvdz-jkfit.gbs 
    atoms 2-3 entry H          line    50 file /home/matt/psi4conda/share/psi4/basis/cc-pvdz-jkfit.gbs 

  ==> Pre-Iterations <==

   -------------------------------------------------------
    Irrep   Nso     Nmo     Nalpha   Nbeta   Ndocc  Nsocc
   -------------------------------------------------------
     A'        18      18       0       0       0       0
     A"         6       6       0       0       0       0
   -------------------------------------------------------
    Total      24      24       5       5       5       0
   -------------------------------------------------------

  ==> Integral Setup <==

  ==> DFJK: Density-Fitted J/K Matrices <==

    J tasked:                  Yes
    K tasked:                  Yes
    wK tasked:                  No
    OpenMP threads:              1
    Integrals threads:           1
    Memory (MB):               375
    Algorithm:                Core
    Integral Cache:           NONE
    Schwarz Cutoff:          1E-12
    Fitting Condition:       1E-12

   => Auxiliary Basis Set <=

  Basis Set: (CC-PVDZ AUX)
    Blend: CC-PVDZ-JKFIT
    Number of shells: 42
    Number of basis function: 116
    Number of Cartesian functions: 131
    Spherical Harmonics?: true
    Max angular momentum: 3

  Minimum eigenvalue in the overlap matrix is 4.7314093327E-02.
  Using Symmetric Orthogonalization.

  SCF Guess: Superposition of Atomic Densities via on-the-fly atomic UHF.

  ==> Iterations <==

                           Total Energy        Delta E     RMS |[F,P]|

   @DF-RHF iter   0:   -75.67161670407769   -7.56716e+01   6.56180e-02 
   @DF-RHF iter   1:   -75.97109375907640   -2.99477e-01   1.12797e-02 
   @DF-RHF iter   2:   -75.98489192412383   -1.37982e-02   5.90628e-03 DIIS
   @DF-RHF iter   3:   -75.98953962782255   -4.64770e-03   9.51339e-04 DIIS
   @DF-RHF iter   4:   -75.98971789323618   -1.78265e-04   2.07379e-04 DIIS
   @DF-RHF iter   5:   -75.98973930790839   -2.14147e-05   6.19512e-05 DIIS
   @DF-RHF iter   6:   -75.98974181869158   -2.51078e-06   1.14867e-05 DIIS
   @DF-RHF iter   7:   -75.98974190237729   -8.36857e-08   1.37423e-06 DIIS
   @DF-RHF iter   8:   -75.98974190328244   -9.05146e-10   2.32785e-07 DIIS
   @DF-RHF iter   9:   -75.98974190330384   -2.14015e-11   3.11448e-08 DIIS
   @DF-RHF iter  10:   -75.98974190330411   -2.70006e-13   3.03006e-09 DIIS

  ==> Post-Iterations <==

    Orbital Energies (a.u.)
    -----------------------

    Doubly Occupied:                                                      

       1Ap   -20.570269     2Ap    -1.275354     3Ap    -0.638846  
       4Ap    -0.532351     1App   -0.484067  

    Virtual:                                                              

       5Ap     0.157889     6Ap     0.231475     7Ap     0.721975  
       8Ap     0.727976     9Ap     1.169125     2App    1.189613  
      10Ap     1.260360     3App    1.439649    11Ap     1.513360  
       4App    1.678665    12Ap     1.788596    13Ap     1.897067  
      14Ap     2.168157    15Ap     2.206686     5App    3.158100  
       6App    3.229249    16Ap     3.306451    17Ap     3.760242  
      18Ap     3.968097  

    Final Occupation by Irrep:
             Ap   App 
    DOCC [     4,    1 ]

  Energy converged.

  @DF-RHF Final Energy:   -75.98974190330411

   => Energetics <=

    Nuclear Repulsion Energy =              8.0225823773606635
    One-Electron Energy =                -121.0228749008400797
    Two-Electron Energy =                  37.0105506201753158
    DFT Exchange-Correlation Energy =       0.0000000000000000
    Empirical Dispersion Energy =           0.0000000000000000
    PCM Polarization Energy =               0.0000000000000000
    EFP Energy =                            0.0000000000000000
    Total Energy =                        -75.9897419033040933



Properties will be evaluated at   0.000000,   0.000000,   0.000000 Bohr

Properties computed using the SCF density matrix

  Nuclear Dipole Moment: (a.u.)
     X:     0.0042      Y:    -1.0545      Z:     0.0000

  Electronic Dipole Moment: (a.u.)
     X:    -0.0013      Y:     0.2349      Z:     0.0000

  Dipole Moment: (a.u.)
     X:     0.0029      Y:    -0.8196      Z:     0.0000     Total:     0.8196

  Dipole Moment: (Debye)
     X:     0.0073      Y:    -2.0832      Z:     0.0000     Total:     2.0832


*** tstop() called on sebastian at Tue Jul 25 16:11:16 2017
Module time:
	user time   =       0.24 seconds =       0.00 minutes
	system time =       0.00 seconds =       0.00 minutes
	total time  =          0 seconds =       0.00 minutes
Total time:
	user time   =       0.24 seconds =       0.00 minutes
	system time =       0.00 seconds =       0.00 minutes
	total time  =          0 seconds =       0.00 minutes

*** Psi4 exiting successfully. Buy a developer a beer!
