
    -----------------------------------------------------------------------
          Psi4: An Open-Source Ab Initio Electronic Structure Package
                               Psi4 1.1 release

                         Git: Rev {HEAD} add49b9 


    R. M. Parrish, L. A. Burns, D. G. A. Smith, A. C. Simmonett,
    A. E. DePrince III, E. G. Hohenstein, U. Bozkaya, A. Yu. Sokolov,
    R. Di Remigio, R. M. Richard, J. F. Gonthier, A. M. James,
    H. R. McAlexander, A. Kumar, M. Saitow, X. Wang, B. P. Pritchard,
    P. Verma, H. F. Schaefer III, K. Patkowski, R. A. King, E. F. Valeev,
    F. A. Evangelista, J. M. Turney, T. D. Crawford, and C. D. Sherrill,
    J. Chem. Theory Comput. in press (2017).
    (doi: 10.1021/acs.jctc.7b00174)

    -----------------------------------------------------------------------


    Psi4 started on: Tuesday, 25 July 2017 04:11PM

    Process ID:  10502
    PSIDATADIR: /home/matt/psi4conda/share/psi4
    Memory:     500.0 MiB
    Threads:    1
    
  ==> Input File <==

--------------------------------------------------------------------------
molecule {
O      0.00000000000    0.00000000000   -0.07117629540   
H      0.00000000000   -0.89661956800    0.56480976130   
H      0.00000000000    0.88661956800    0.56480976130   

}

set e_convergence 11
set basis         cc-pVDZ
energy('scf')

--------------------------------------------------------------------------

*** tstart() called on sebastian
*** at Tue Jul 25 16:11:43 2017

   => Loading Basis Set <=

    Name: CC-PVDZ
    Role: ORBITAL
    Keyword: BASIS
    atoms 1   entry O          line   190 file /home/matt/psi4conda/share/psi4/basis/cc-pvdz.gbs 
    atoms 2-3 entry H          line    20 file /home/matt/psi4conda/share/psi4/basis/cc-pvdz.gbs 

    There are an even number of electrons - assuming singlet.
    Specify the multiplicity in the molecule input block.


         ---------------------------------------------------------
                                   SCF
            by Justin Turney, Rob Parrish, and Andy Simmonett
                              RHF Reference
                        1 Threads,    500 MiB Core
         ---------------------------------------------------------

  ==> Geometry <==

    Molecular point group: cs
    Full point group: Cs

    Geometry (in Angstrom), charge = 0, multiplicity = 1:

       Center              X                  Y                   Z               Mass       
    ------------   -----------------  -----------------  -----------------  -----------------
           O         -0.000559574366     0.071176298939     0.000000000000    15.994914619560
           H          0.896059993634    -0.564809757761     0.000000000000     1.007825032070
           H         -0.887179142366    -0.564809757761     0.000000000000     1.007825032070

  Running in cs symmetry.

  Rotational constants: A =     23.28379  B =     10.51962  C =      7.24591 [cm^-1]
  Rotational constants: A = 698030.49987  B = 315370.27129  C = 217227.05802 [MHz]
  Nuclear repulsion =    8.027685684329006

  Charge       = 0
  Multiplicity = 1
  Electrons    = 10
  Nalpha       = 5
  Nbeta        = 5

  ==> Algorithm <==

  SCF Algorithm Type is DF.
  DIIS enabled.
  MOM disabled.
  Fractional occupation disabled.
  Guess Type is SAD.
  Energy threshold   = 1.00e-11
  Density threshold  = 1.00e-06
  Integral threshold = 0.00e+00

  ==> Primary Basis <==

  Basis Set: CC-PVDZ
    Blend: CC-PVDZ
    Number of shells: 12
    Number of basis function: 24
    Number of Cartesian functions: 25
    Spherical Harmonics?: true
    Max angular momentum: 2

   => Loading Basis Set <=

    Name: (CC-PVDZ AUX)
    Role: JKFIT
    Keyword: DF_BASIS_SCF
    atoms 1   entry O          line   220 file /home/matt/psi4conda/share/psi4/basis/cc-pvdz-jkfit.gbs 
    atoms 2-3 entry H          line    50 file /home/matt/psi4conda/share/psi4/basis/cc-pvdz-jkfit.gbs 

  ==> Pre-Iterations <==

   -------------------------------------------------------
    Irrep   Nso     Nmo     Nalpha   Nbeta   Ndocc  Nsocc
   -------------------------------------------------------
     A'        18      18       0       0       0       0
     A"         6       6       0       0       0       0
   -------------------------------------------------------
    Total      24      24       5       5       5       0
   -------------------------------------------------------

  ==> Integral Setup <==

  ==> DFJK: Density-Fitted J/K Matrices <==

    J tasked:                  Yes
    K tasked:                  Yes
    wK tasked:                  No
    OpenMP threads:              1
    Integrals threads:           1
    Memory (MB):               375
    Algorithm:                Core
    Integral Cache:           NONE
    Schwarz Cutoff:          1E-12
    Fitting Condition:       1E-12

   => Auxiliary Basis Set <=

  Basis Set: (CC-PVDZ AUX)
    Blend: CC-PVDZ-JKFIT
    Number of shells: 42
    Number of basis function: 116
    Number of Cartesian functions: 131
    Spherical Harmonics?: true
    Max angular momentum: 3

  Minimum eigenvalue in the overlap matrix is 4.7132934219E-02.
  Using Symmetric Orthogonalization.

  SCF Guess: Superposition of Atomic Densities via on-the-fly atomic UHF.

  ==> Iterations <==

                           Total Energy        Delta E     RMS |[F,P]|

   @DF-RHF iter   0:   -75.75326826878486   -7.57533e+01   6.66031e-02 
   @DF-RHF iter   1:   -75.94631446879382   -1.93046e-01   1.51375e-02 
   @DF-RHF iter   2:   -75.97807437027126   -3.17599e-02   9.04135e-03 DIIS
   @DF-RHF iter   3:   -75.98889944592224   -1.08251e-02   1.51386e-03 DIIS
   @DF-RHF iter   4:   -75.98996659952751   -1.06715e-03   5.46314e-04 DIIS
   @DF-RHF iter   5:   -75.99012225071236   -1.55651e-04   1.16667e-04 DIIS
   @DF-RHF iter   6:   -75.99013127929530   -9.02858e-06   2.28919e-05 DIIS
   @DF-RHF iter   7:   -75.99013160445350   -3.25158e-07   3.63788e-06 DIIS
   @DF-RHF iter   8:   -75.99013161008295   -5.62946e-09   4.77390e-07 DIIS
   @DF-RHF iter   9:   -75.99013161014881   -6.58531e-11   3.50241e-08 DIIS
   @DF-RHF iter  10:   -75.99013161014923   -4.26326e-13   5.57810e-09 DIIS

  ==> Post-Iterations <==

    Orbital Energies (a.u.)
    -----------------------

    Doubly Occupied:                                                      

       1Ap   -20.570447     2Ap    -1.275813     3Ap    -0.638658  
       4Ap    -0.533130     1App   -0.484270  

    Virtual:                                                              

       5Ap     0.158076     6Ap     0.231539     7Ap     0.720555  
       8Ap     0.730311     9Ap     1.169128     2App    1.189522  
      10Ap     1.260812     3App    1.440487    11Ap     1.510773  
       4App    1.677486    12Ap     1.790202    13Ap     1.896801  
      14Ap     2.167352    15Ap     2.208659     5App    3.159598  
       6App    3.228840    16Ap     3.309582    17Ap     3.757885  
      18Ap     3.970627  

    Final Occupation by Irrep:
             Ap   App 
    DOCC [     4,    1 ]

  Energy converged.

  @DF-RHF Final Energy:   -75.99013161014923

   => Energetics <=

    Nuclear Repulsion Energy =              8.0276856843290059
    One-Electron Energy =                -121.0309997777345501
    Two-Electron Energy =                  37.0131824832563296
    DFT Exchange-Correlation Energy =       0.0000000000000000
    Empirical Dispersion Energy =           0.0000000000000000
    PCM Polarization Energy =               0.0000000000000000
    EFP Energy =                            0.0000000000000000
    Total Energy =                        -75.9901316101492199



Properties will be evaluated at   0.000000,   0.000000,   0.000000 Bohr

Properties computed using the SCF density matrix

  Nuclear Dipole Moment: (a.u.)
     X:     0.0083      Y:    -1.0586      Z:     0.0000

  Electronic Dipole Moment: (a.u.)
     X:    -0.0043      Y:     0.2367      Z:     0.0000

  Dipole Moment: (a.u.)
     X:     0.0040      Y:    -0.8220      Z:     0.0000     Total:     0.8220

  Dipole Moment: (Debye)
     X:     0.0102      Y:    -2.0893      Z:     0.0000     Total:     2.0893


*** tstop() called on sebastian at Tue Jul 25 16:11:43 2017
Module time:
	user time   =       0.21 seconds =       0.00 minutes
	system time =       0.02 seconds =       0.00 minutes
	total time  =          0 seconds =       0.00 minutes
Total time:
	user time   =       0.21 seconds =       0.00 minutes
	system time =       0.02 seconds =       0.00 minutes
	total time  =          0 seconds =       0.00 minutes

*** Psi4 exiting successfully. Buy a developer a beer!
