
    -----------------------------------------------------------------------
          Psi4: An Open-Source Ab Initio Electronic Structure Package
                               Psi4 1.1 release

                         Git: Rev {HEAD} add49b9 


    R. M. Parrish, L. A. Burns, D. G. A. Smith, A. C. Simmonett,
    A. E. DePrince III, E. G. Hohenstein, U. Bozkaya, A. Yu. Sokolov,
    R. Di Remigio, R. M. Richard, J. F. Gonthier, A. M. James,
    H. R. McAlexander, A. Kumar, M. Saitow, X. Wang, B. P. Pritchard,
    P. Verma, H. F. Schaefer III, K. Patkowski, R. A. King, E. F. Valeev,
    F. A. Evangelista, J. M. Turney, T. D. Crawford, and C. D. Sherrill,
    J. Chem. Theory Comput. in press (2017).
    (doi: 10.1021/acs.jctc.7b00174)

    -----------------------------------------------------------------------


    Psi4 started on: Tuesday, 25 July 2017 04:11PM

    Process ID:  10255
    PSIDATADIR: /home/matt/psi4conda/share/psi4
    Memory:     500.0 MiB
    Threads:    1
    
  ==> Input File <==

--------------------------------------------------------------------------
molecule {
O      0.00000000000    0.00000000000   -0.07117629540   
H      0.00000000000   -0.89661956800    0.56480976130   
H      0.00000000000    0.89161956800    0.55980976130   

}

set e_convergence 11
set basis         cc-pVDZ
energy('scf')

--------------------------------------------------------------------------

*** tstart() called on sebastian
*** at Tue Jul 25 16:11:23 2017

   => Loading Basis Set <=

    Name: CC-PVDZ
    Role: ORBITAL
    Keyword: BASIS
    atoms 1   entry O          line   190 file /home/matt/psi4conda/share/psi4/basis/cc-pvdz.gbs 
    atoms 2-3 entry H          line    20 file /home/matt/psi4conda/share/psi4/basis/cc-pvdz.gbs 

    There are an even number of electrons - assuming singlet.
    Specify the multiplicity in the molecule input block.


         ---------------------------------------------------------
                                   SCF
            by Justin Turney, Rob Parrish, and Andy Simmonett
                              RHF Reference
                        1 Threads,    500 MiB Core
         ---------------------------------------------------------

  ==> Geometry <==

    Molecular point group: cs
    Full point group: Cs

    Geometry (in Angstrom), charge = 0, multiplicity = 1:

       Center              X                  Y                   Z               Mass       
    ------------   -----------------  -----------------  -----------------  -----------------
           O         -0.000279787183     0.070896511755     0.000000000000    15.994914619560
           H          0.896339780817    -0.565089544945     0.000000000000     1.007825032070
           H         -0.891899355183    -0.560089544945     0.000000000000     1.007825032070

  Running in cs symmetry.

  Rotational constants: A =     23.46829  B =     10.46094  C =      7.23566 [cm^-1]
  Rotational constants: A = 703561.71935  B = 313611.21489  C = 216919.69785 [MHz]
  Nuclear repulsion =    8.022696205980763

  Charge       = 0
  Multiplicity = 1
  Electrons    = 10
  Nalpha       = 5
  Nbeta        = 5

  ==> Algorithm <==

  SCF Algorithm Type is DF.
  DIIS enabled.
  MOM disabled.
  Fractional occupation disabled.
  Guess Type is SAD.
  Energy threshold   = 1.00e-11
  Density threshold  = 1.00e-06
  Integral threshold = 0.00e+00

  ==> Primary Basis <==

  Basis Set: CC-PVDZ
    Blend: CC-PVDZ
    Number of shells: 12
    Number of basis function: 24
    Number of Cartesian functions: 25
    Spherical Harmonics?: true
    Max angular momentum: 2

   => Loading Basis Set <=

    Name: (CC-PVDZ AUX)
    Role: JKFIT
    Keyword: DF_BASIS_SCF
    atoms 1   entry O          line   220 file /home/matt/psi4conda/share/psi4/basis/cc-pvdz-jkfit.gbs 
    atoms 2-3 entry H          line    50 file /home/matt/psi4conda/share/psi4/basis/cc-pvdz-jkfit.gbs 

  ==> Pre-Iterations <==

   -------------------------------------------------------
    Irrep   Nso     Nmo     Nalpha   Nbeta   Ndocc  Nsocc
   -------------------------------------------------------
     A'        18      18       0       0       0       0
     A"         6       6       0       0       0       0
   -------------------------------------------------------
    Total      24      24       5       5       5       0
   -------------------------------------------------------

  ==> Integral Setup <==

  ==> DFJK: Density-Fitted J/K Matrices <==

    J tasked:                  Yes
    K tasked:                  Yes
    wK tasked:                  No
    OpenMP threads:              1
    Integrals threads:           1
    Memory (MB):               375
    Algorithm:                Core
    Integral Cache:           NONE
    Schwarz Cutoff:          1E-12
    Fitting Condition:       1E-12

   => Auxiliary Basis Set <=

  Basis Set: (CC-PVDZ AUX)
    Blend: CC-PVDZ-JKFIT
    Number of shells: 42
    Number of basis function: 116
    Number of Cartesian functions: 131
    Spherical Harmonics?: true
    Max angular momentum: 3

  Minimum eigenvalue in the overlap matrix is 4.7310698371E-02.
  Using Symmetric Orthogonalization.

  SCF Guess: Superposition of Atomic Densities via on-the-fly atomic UHF.

  ==> Iterations <==

                           Total Energy        Delta E     RMS |[F,P]|

   @DF-RHF iter   0:   -75.67163617797939   -7.56716e+01   6.56208e-02 
   @DF-RHF iter   1:   -75.97108479209848   -2.99449e-01   1.12801e-02 
   @DF-RHF iter   2:   -75.98488422812608   -1.37994e-02   5.90671e-03 DIIS
   @DF-RHF iter   3:   -75.98953256238410   -4.64833e-03   9.51324e-04 DIIS
   @DF-RHF iter   4:   -75.98971085199678   -1.78290e-04   2.07399e-04 DIIS
   @DF-RHF iter   5:   -75.98973226988177   -2.14179e-05   6.19468e-05 DIIS
   @DF-RHF iter   6:   -75.98973478018215   -2.51030e-06   1.14867e-05 DIIS
   @DF-RHF iter   7:   -75.98973486386664   -8.36845e-08   1.37587e-06 DIIS
   @DF-RHF iter   8:   -75.98973486477507   -9.08429e-10   2.33556e-07 DIIS
   @DF-RHF iter   9:   -75.98973486479667   -2.16005e-11   3.14524e-08 DIIS
   @DF-RHF iter  10:   -75.98973486479689   -2.13163e-13   3.44233e-09 DIIS

  ==> Post-Iterations <==

    Orbital Energies (a.u.)
    -----------------------

    Doubly Occupied:                                                      

       1Ap   -20.570267     2Ap    -1.275364     3Ap    -0.638856  
       4Ap    -0.532346     1App   -0.484069  

    Virtual:                                                              

       5Ap     0.157880     6Ap     0.231481     7Ap     0.721366  
       8Ap     0.728615     9Ap     1.169108     2App    1.189609  
      10Ap     1.260384     3App    1.439661    11Ap     1.513365  
       4App    1.678665    12Ap     1.788584    13Ap     1.897025  
      14Ap     2.167449    15Ap     2.207509     5App    3.158005  
       6App    3.229370    16Ap     3.306472    17Ap     3.760167  
      18Ap     3.968184  

    Final Occupation by Irrep:
             Ap   App 
    DOCC [     4,    1 ]

  Energy converged.

  @DF-RHF Final Energy:   -75.98973486479689

   => Energetics <=

    Nuclear Repulsion Energy =              8.0226962059807629
    One-Electron Energy =                -121.0230597948078639
    Two-Electron Energy =                  37.0106287240302194
    DFT Exchange-Correlation Energy =       0.0000000000000000
    Empirical Dispersion Energy =           0.0000000000000000
    PCM Polarization Energy =               0.0000000000000000
    EFP Energy =                            0.0000000000000000
    Total Energy =                        -75.9897348647968727



Properties will be evaluated at   0.000000,   0.000000,   0.000000 Bohr

Properties computed using the SCF density matrix

  Nuclear Dipole Moment: (a.u.)
     X:     0.0042      Y:    -1.0545      Z:     0.0000

  Electronic Dipole Moment: (a.u.)
     X:    -0.0030      Y:     0.2349      Z:     0.0000

  Dipole Moment: (a.u.)
     X:     0.0011      Y:    -0.8196      Z:     0.0000     Total:     0.8196

  Dipole Moment: (Debye)
     X:     0.0029      Y:    -2.0832      Z:     0.0000     Total:     2.0832


*** tstop() called on sebastian at Tue Jul 25 16:11:24 2017
Module time:
	user time   =       0.22 seconds =       0.00 minutes
	system time =       0.01 seconds =       0.00 minutes
	total time  =          1 seconds =       0.02 minutes
Total time:
	user time   =       0.22 seconds =       0.00 minutes
	system time =       0.01 seconds =       0.00 minutes
	total time  =          1 seconds =       0.02 minutes

*** Psi4 exiting successfully. Buy a developer a beer!
