
    -----------------------------------------------------------------------
          Psi4: An Open-Source Ab Initio Electronic Structure Package
                               Psi4 1.1 release

                         Git: Rev {HEAD} add49b9 


    R. M. Parrish, L. A. Burns, D. G. A. Smith, A. C. Simmonett,
    A. E. DePrince III, E. G. Hohenstein, U. Bozkaya, A. Yu. Sokolov,
    R. Di Remigio, R. M. Richard, J. F. Gonthier, A. M. James,
    H. R. McAlexander, A. Kumar, M. Saitow, X. Wang, B. P. Pritchard,
    P. Verma, H. F. Schaefer III, K. Patkowski, R. A. King, E. F. Valeev,
    F. A. Evangelista, J. M. Turney, T. D. Crawford, and C. D. Sherrill,
    J. Chem. Theory Comput. in press (2017).
    (doi: 10.1021/acs.jctc.7b00174)

    -----------------------------------------------------------------------


    Psi4 started on: Tuesday, 25 July 2017 04:11PM

    Process ID:  10303
    PSIDATADIR: /home/matt/psi4conda/share/psi4
    Memory:     500.0 MiB
    Threads:    1
    
  ==> Input File <==

--------------------------------------------------------------------------
molecule {
O      0.00000000000    0.00000000000   -0.07117629540   
H      0.00000000000   -0.89161956800    0.56980976130   
H      0.00000000000    0.89661956800    0.56480976130   

}

set e_convergence 11
set basis         cc-pVDZ
energy('scf')

--------------------------------------------------------------------------

*** tstart() called on sebastian
*** at Tue Jul 25 16:11:27 2017

   => Loading Basis Set <=

    Name: CC-PVDZ
    Role: ORBITAL
    Keyword: BASIS
    atoms 1   entry O          line   190 file /home/matt/psi4conda/share/psi4/basis/cc-pvdz.gbs 
    atoms 2-3 entry H          line    20 file /home/matt/psi4conda/share/psi4/basis/cc-pvdz.gbs 

    There are an even number of electrons - assuming singlet.
    Specify the multiplicity in the molecule input block.


         ---------------------------------------------------------
                                   SCF
            by Justin Turney, Rob Parrish, and Andy Simmonett
                              RHF Reference
                        1 Threads,    500 MiB Core
         ---------------------------------------------------------

  ==> Geometry <==

    Molecular point group: cs
    Full point group: Cs

    Geometry (in Angstrom), charge = 0, multiplicity = 1:

       Center              X                  Y                   Z               Mass       
    ------------   -----------------  -----------------  -----------------  -----------------
           O          0.000279787183     0.071456086122     0.000000000000    15.994914619560
           H          0.891899355183    -0.569529970578     0.000000000000     1.007825032070
           H         -0.896339780817    -0.564529970578     0.000000000000     1.007825032070

  Running in cs symmetry.

  Rotational constants: A =     23.10033  B =     10.46132  C =      7.20048 [cm^-1]
  Rotational constants: A = 692530.59391  B = 313622.35699  C = 215864.87120 [MHz]
  Nuclear repulsion =    8.002201009231788

  Charge       = 0
  Multiplicity = 1
  Electrons    = 10
  Nalpha       = 5
  Nbeta        = 5

  ==> Algorithm <==

  SCF Algorithm Type is DF.
  DIIS enabled.
  MOM disabled.
  Fractional occupation disabled.
  Guess Type is SAD.
  Energy threshold   = 1.00e-11
  Density threshold  = 1.00e-06
  Integral threshold = 0.00e+00

  ==> Primary Basis <==

  Basis Set: CC-PVDZ
    Blend: CC-PVDZ
    Number of shells: 12
    Number of basis function: 24
    Number of Cartesian functions: 25
    Spherical Harmonics?: true
    Max angular momentum: 2

   => Loading Basis Set <=

    Name: (CC-PVDZ AUX)
    Role: JKFIT
    Keyword: DF_BASIS_SCF
    atoms 1   entry O          line   220 file /home/matt/psi4conda/share/psi4/basis/cc-pvdz-jkfit.gbs 
    atoms 2-3 entry H          line    50 file /home/matt/psi4conda/share/psi4/basis/cc-pvdz-jkfit.gbs 

  ==> Pre-Iterations <==

   -------------------------------------------------------
    Irrep   Nso     Nmo     Nalpha   Nbeta   Ndocc  Nsocc
   -------------------------------------------------------
     A'        18      18       0       0       0       0
     A"         6       6       0       0       0       0
   -------------------------------------------------------
    Total      24      24       5       5       5       0
   -------------------------------------------------------

  ==> Integral Setup <==

  ==> DFJK: Density-Fitted J/K Matrices <==

    J tasked:                  Yes
    K tasked:                  Yes
    wK tasked:                  No
    OpenMP threads:              1
    Integrals threads:           1
    Memory (MB):               375
    Algorithm:                Core
    Integral Cache:           NONE
    Schwarz Cutoff:          1E-12
    Fitting Condition:       1E-12

   => Auxiliary Basis Set <=

  Basis Set: (CC-PVDZ AUX)
    Blend: CC-PVDZ-JKFIT
    Number of shells: 42
    Number of basis function: 116
    Number of Cartesian functions: 131
    Spherical Harmonics?: true
    Max angular momentum: 3

  Minimum eigenvalue in the overlap matrix is 4.7473653330E-02.
  Using Symmetric Orthogonalization.

  SCF Guess: Superposition of Atomic Densities via on-the-fly atomic UHF.

  ==> Iterations <==

                           Total Energy        Delta E     RMS |[F,P]|

   @DF-RHF iter   0:   -75.74750383915662   -7.57475e+01   6.61291e-02 
   @DF-RHF iter   1:   -75.94461060760727   -1.97107e-01   1.51582e-02 
   @DF-RHF iter   2:   -75.97651691516367   -3.19063e-02   9.10024e-03 DIIS
   @DF-RHF iter   3:   -75.98748596479990   -1.09690e-02   1.52090e-03 DIIS
   @DF-RHF iter   4:   -75.98857044050845   -1.08448e-03   5.51456e-04 DIIS
   @DF-RHF iter   5:   -75.98872962539248   -1.59185e-04   1.18027e-04 DIIS
   @DF-RHF iter   6:   -75.98873891416979   -9.28878e-06   2.33497e-05 DIIS
   @DF-RHF iter   7:   -75.98873925388688   -3.39717e-07   3.71501e-06 DIIS
   @DF-RHF iter   8:   -75.98873925975936   -5.87248e-09   4.85030e-07 DIIS
   @DF-RHF iter   9:   -75.98873925982681   -6.74589e-11   3.52923e-08 DIIS
   @DF-RHF iter  10:   -75.98873925982718   -3.69482e-13   5.70091e-09 DIIS

  ==> Post-Iterations <==

    Orbital Energies (a.u.)
    -----------------------

    Doubly Occupied:                                                      

       1Ap   -20.571046     2Ap    -1.274684     3Ap    -0.637018  
       4Ap    -0.532655     1App   -0.484198  

    Virtual:                                                              

       5Ap     0.157292     6Ap     0.230776     7Ap     0.719307  
       8Ap     0.727797     9Ap     1.169287     2App    1.188989  
      10Ap     1.261274     3App    1.440288    11Ap     1.511116  
       4App    1.676923    12Ap     1.788027    13Ap     1.896376  
      14Ap     2.161485    15Ap     2.202666     5App    3.157664  
       6App    3.225594    16Ap     3.305891    17Ap     3.753812  
      18Ap     3.966884  

    Final Occupation by Irrep:
             Ap   App 
    DOCC [     4,    1 ]

  Energy converged.

  @DF-RHF Final Energy:   -75.98873925982718

   => Energetics <=

    Nuclear Repulsion Energy =              8.0022010092317881
    One-Electron Energy =                -120.9826789617795839
    Two-Electron Energy =                  36.9917386927206309
    DFT Exchange-Correlation Energy =       0.0000000000000000
    Empirical Dispersion Energy =           0.0000000000000000
    PCM Polarization Energy =               0.0000000000000000
    EFP Energy =                            0.0000000000000000
    Total Energy =                        -75.9887392598271703



Properties will be evaluated at   0.000000,   0.000000,   0.000000 Bohr

Properties computed using the SCF density matrix

  Nuclear Dipole Moment: (a.u.)
     X:    -0.0042      Y:    -1.0628      Z:     0.0000

  Electronic Dipole Moment: (a.u.)
     X:     0.0013      Y:     0.2397      Z:     0.0000

  Dipole Moment: (a.u.)
     X:    -0.0029      Y:    -0.8232      Z:     0.0000     Total:     0.8232

  Dipole Moment: (Debye)
     X:    -0.0073      Y:    -2.0922      Z:     0.0000     Total:     2.0923


*** tstop() called on sebastian at Tue Jul 25 16:11:27 2017
Module time:
	user time   =       0.23 seconds =       0.00 minutes
	system time =       0.01 seconds =       0.00 minutes
	total time  =          0 seconds =       0.00 minutes
Total time:
	user time   =       0.23 seconds =       0.00 minutes
	system time =       0.01 seconds =       0.00 minutes
	total time  =          0 seconds =       0.00 minutes

*** Psi4 exiting successfully. Buy a developer a beer!
