
    -----------------------------------------------------------------------
          Psi4: An Open-Source Ab Initio Electronic Structure Package
                               Psi4 1.1 release

                         Git: Rev {HEAD} add49b9 


    R. M. Parrish, L. A. Burns, D. G. A. Smith, A. C. Simmonett,
    A. E. DePrince III, E. G. Hohenstein, U. Bozkaya, A. Yu. Sokolov,
    R. Di Remigio, R. M. Richard, J. F. Gonthier, A. M. James,
    H. R. McAlexander, A. Kumar, M. Saitow, X. Wang, B. P. Pritchard,
    P. Verma, H. F. Schaefer III, K. Patkowski, R. A. King, E. F. Valeev,
    F. A. Evangelista, J. M. Turney, T. D. Crawford, and C. D. Sherrill,
    J. Chem. Theory Comput. in press (2017).
    (doi: 10.1021/acs.jctc.7b00174)

    -----------------------------------------------------------------------


    Psi4 started on: Tuesday, 25 July 2017 04:11PM

    Process ID:  10273
    PSIDATADIR: /home/matt/psi4conda/share/psi4
    Memory:     500.0 MiB
    Threads:    1
    
  ==> Input File <==

--------------------------------------------------------------------------
molecule {
O      0.00000000000    0.00000000000   -0.07117629540   
H      0.00000000000   -0.89161956800    0.56480976130   
H      0.00000000000    0.89661956800    0.56980976130   

}

set e_convergence 11
set basis         cc-pVDZ
energy('scf')

--------------------------------------------------------------------------

*** tstart() called on sebastian
*** at Tue Jul 25 16:11:25 2017

   => Loading Basis Set <=

    Name: CC-PVDZ
    Role: ORBITAL
    Keyword: BASIS
    atoms 1   entry O          line   190 file /home/matt/psi4conda/share/psi4/basis/cc-pvdz.gbs 
    atoms 2-3 entry H          line    20 file /home/matt/psi4conda/share/psi4/basis/cc-pvdz.gbs 

    There are an even number of electrons - assuming singlet.
    Specify the multiplicity in the molecule input block.


         ---------------------------------------------------------
                                   SCF
            by Justin Turney, Rob Parrish, and Andy Simmonett
                              RHF Reference
                        1 Threads,    500 MiB Core
         ---------------------------------------------------------

  ==> Geometry <==

    Molecular point group: cs
    Full point group: Cs

    Geometry (in Angstrom), charge = 0, multiplicity = 1:

       Center              X                  Y                   Z               Mass       
    ------------   -----------------  -----------------  -----------------  -----------------
           O          0.000279787183     0.071456086122     0.000000000000    15.994914619560
           H          0.891899355183    -0.564529970578     0.000000000000     1.007825032070
           H         -0.896339780817    -0.569529970578     0.000000000000     1.007825032070

  Running in cs symmetry.

  Rotational constants: A =     23.10218  B =     10.46094  C =      7.20048 [cm^-1]
  Rotational constants: A = 692586.02244  B = 313610.99069  C = 215864.87120 [MHz]
  Nuclear repulsion =    8.002314231104425

  Charge       = 0
  Multiplicity = 1
  Electrons    = 10
  Nalpha       = 5
  Nbeta        = 5

  ==> Algorithm <==

  SCF Algorithm Type is DF.
  DIIS enabled.
  MOM disabled.
  Fractional occupation disabled.
  Guess Type is SAD.
  Energy threshold   = 1.00e-11
  Density threshold  = 1.00e-06
  Integral threshold = 0.00e+00

  ==> Primary Basis <==

  Basis Set: CC-PVDZ
    Blend: CC-PVDZ
    Number of shells: 12
    Number of basis function: 24
    Number of Cartesian functions: 25
    Spherical Harmonics?: true
    Max angular momentum: 2

   => Loading Basis Set <=

    Name: (CC-PVDZ AUX)
    Role: JKFIT
    Keyword: DF_BASIS_SCF
    atoms 1   entry O          line   220 file /home/matt/psi4conda/share/psi4/basis/cc-pvdz-jkfit.gbs 
    atoms 2-3 entry H          line    50 file /home/matt/psi4conda/share/psi4/basis/cc-pvdz-jkfit.gbs 

  ==> Pre-Iterations <==

   -------------------------------------------------------
    Irrep   Nso     Nmo     Nalpha   Nbeta   Ndocc  Nsocc
   -------------------------------------------------------
     A'        18      18       0       0       0       0
     A"         6       6       0       0       0       0
   -------------------------------------------------------
    Total      24      24       5       5       5       0
   -------------------------------------------------------

  ==> Integral Setup <==

  ==> DFJK: Density-Fitted J/K Matrices <==

    J tasked:                  Yes
    K tasked:                  Yes
    wK tasked:                  No
    OpenMP threads:              1
    Integrals threads:           1
    Memory (MB):               375
    Algorithm:                Core
    Integral Cache:           NONE
    Schwarz Cutoff:          1E-12
    Fitting Condition:       1E-12

   => Auxiliary Basis Set <=

  Basis Set: (CC-PVDZ AUX)
    Blend: CC-PVDZ-JKFIT
    Number of shells: 42
    Number of basis function: 116
    Number of Cartesian functions: 131
    Spherical Harmonics?: true
    Max angular momentum: 3

  Minimum eigenvalue in the overlap matrix is 4.7470277560E-02.
  Using Symmetric Orthogonalization.

  SCF Guess: Superposition of Atomic Densities via on-the-fly atomic UHF.

  ==> Iterations <==

                           Total Energy        Delta E     RMS |[F,P]|

   @DF-RHF iter   0:   -75.74752517523160   -7.57475e+01   6.61320e-02 
   @DF-RHF iter   1:   -75.94460381039754   -1.97079e-01   1.51583e-02 
   @DF-RHF iter   2:   -75.97650975524817   -3.19059e-02   9.10039e-03 DIIS
   @DF-RHF iter   3:   -75.98747910494625   -1.09693e-02   1.52087e-03 DIIS
   @DF-RHF iter   4:   -75.98856360519184   -1.08450e-03   5.51466e-04 DIIS
   @DF-RHF iter   5:   -75.98872280183913   -1.59197e-04   1.18040e-04 DIIS
   @DF-RHF iter   6:   -75.98873209289502   -9.29106e-06   2.33524e-05 DIIS
   @DF-RHF iter   7:   -75.98873243269392   -3.39799e-07   3.71531e-06 DIIS
   @DF-RHF iter   8:   -75.98873243856727   -5.87335e-09   4.84793e-07 DIIS
   @DF-RHF iter   9:   -75.98873243863476   -6.74873e-11   3.53024e-08 DIIS
   @DF-RHF iter  10:   -75.98873243863515   -3.97904e-13   5.63003e-09 DIIS

  ==> Post-Iterations <==

    Orbital Energies (a.u.)
    -----------------------

    Doubly Occupied:                                                      

       1Ap   -20.571044     2Ap    -1.274694     3Ap    -0.637028  
       4Ap    -0.532651     1App   -0.484199  

    Virtual:                                                              

       5Ap     0.157282     6Ap     0.230782     7Ap     0.718868  
       8Ap     0.728266     9Ap     1.169271     2App    1.188985  
      10Ap     1.261297     3App    1.440300    11Ap     1.511120  
       4App    1.676923    12Ap     1.788015    13Ap     1.896332  
      14Ap     2.160840    15Ap     2.203429     5App    3.157565  
       6App    3.225720    16Ap     3.305912    17Ap     3.753737  
      18Ap     3.966970  

    Final Occupation by Irrep:
             Ap   App 
    DOCC [     4,    1 ]

  Energy converged.

  @DF-RHF Final Energy:   -75.98873243863515

   => Energetics <=

    Nuclear Repulsion Energy =              8.0023142311044246
    One-Electron Energy =                -120.9828630580053357
    Two-Electron Energy =                  36.9918163882657609
    DFT Exchange-Correlation Energy =       0.0000000000000000
    Empirical Dispersion Energy =           0.0000000000000000
    PCM Polarization Energy =               0.0000000000000000
    EFP Energy =                            0.0000000000000000
    Total Energy =                        -75.9887324386351537



Properties will be evaluated at   0.000000,   0.000000,   0.000000 Bohr

Properties computed using the SCF density matrix

  Nuclear Dipole Moment: (a.u.)
     X:    -0.0042      Y:    -1.0628      Z:     0.0000

  Electronic Dipole Moment: (a.u.)
     X:     0.0031      Y:     0.2397      Z:     0.0000

  Dipole Moment: (a.u.)
     X:    -0.0011      Y:    -0.8232      Z:     0.0000     Total:     0.8232

  Dipole Moment: (Debye)
     X:    -0.0028      Y:    -2.0922      Z:     0.0000     Total:     2.0922


*** tstop() called on sebastian at Tue Jul 25 16:11:25 2017
Module time:
	user time   =       0.22 seconds =       0.00 minutes
	system time =       0.00 seconds =       0.00 minutes
	total time  =          0 seconds =       0.00 minutes
Total time:
	user time   =       0.22 seconds =       0.00 minutes
	system time =       0.00 seconds =       0.00 minutes
	total time  =          0 seconds =       0.00 minutes

*** Psi4 exiting successfully. Buy a developer a beer!
