
    -----------------------------------------------------------------------
          Psi4: An Open-Source Ab Initio Electronic Structure Package
                               Psi4 1.1 release

                         Git: Rev {HEAD} add49b9 


    R. M. Parrish, L. A. Burns, D. G. A. Smith, A. C. Simmonett,
    A. E. DePrince III, E. G. Hohenstein, U. Bozkaya, A. Yu. Sokolov,
    R. Di Remigio, R. M. Richard, J. F. Gonthier, A. M. James,
    H. R. McAlexander, A. Kumar, M. Saitow, X. Wang, B. P. Pritchard,
    P. Verma, H. F. Schaefer III, K. Patkowski, R. A. King, E. F. Valeev,
    F. A. Evangelista, J. M. Turney, T. D. Crawford, and C. D. Sherrill,
    J. Chem. Theory Comput. in press (2017).
    (doi: 10.1021/acs.jctc.7b00174)

    -----------------------------------------------------------------------


    Psi4 started on: Tuesday, 25 July 2017 04:11PM

    Process ID:  10370
    PSIDATADIR: /home/matt/psi4conda/share/psi4
    Memory:     500.0 MiB
    Threads:    1
    
  ==> Input File <==

--------------------------------------------------------------------------
molecule {
O      0.00000000000    0.00000000000   -0.07117629540   
H      0.00000000000   -0.89161956800    0.56480976130   
H      0.00000000000    0.89161956800    0.56480976130   

}

set e_convergence 11
set basis         cc-pVDZ
energy('scf')

--------------------------------------------------------------------------

*** tstart() called on sebastian
*** at Tue Jul 25 16:11:32 2017

   => Loading Basis Set <=

    Name: CC-PVDZ
    Role: ORBITAL
    Keyword: BASIS
    atoms 1   entry O          line   190 file /home/matt/psi4conda/share/psi4/basis/cc-pvdz.gbs 
    atoms 2-3 entry H          line    20 file /home/matt/psi4conda/share/psi4/basis/cc-pvdz.gbs 

    There are an even number of electrons - assuming singlet.
    Specify the multiplicity in the molecule input block.


         ---------------------------------------------------------
                                   SCF
            by Justin Turney, Rob Parrish, and Andy Simmonett
                              RHF Reference
                        1 Threads,    500 MiB Core
         ---------------------------------------------------------

  ==> Geometry <==

    Molecular point group: c2v
    Full point group: C2v

    Geometry (in Angstrom), charge = 0, multiplicity = 1:

       Center              X                  Y                   Z               Mass       
    ------------   -----------------  -----------------  -----------------  -----------------
           O          0.000000000000     0.000000000000    -0.071176298939    15.994914619560
           H          0.000000000000    -0.891619568000     0.564809757761     1.007825032070
           H         -0.000000000000     0.891619568000     0.564809757761     1.007825032070

  Running in c2v symmetry.

  Rotational constants: A =     23.28261  B =     10.52016  C =      7.24605 [cm^-1]
  Rotational constants: A = 697994.93944  B = 315386.33832  C = 217231.23660 [MHz]
  Nuclear repulsion =    8.027606057623753

  Charge       = 0
  Multiplicity = 1
  Electrons    = 10
  Nalpha       = 5
  Nbeta        = 5

  ==> Algorithm <==

  SCF Algorithm Type is DF.
  DIIS enabled.
  MOM disabled.
  Fractional occupation disabled.
  Guess Type is SAD.
  Energy threshold   = 1.00e-11
  Density threshold  = 1.00e-06
  Integral threshold = 0.00e+00

  ==> Primary Basis <==

  Basis Set: CC-PVDZ
    Blend: CC-PVDZ
    Number of shells: 12
    Number of basis function: 24
    Number of Cartesian functions: 25
    Spherical Harmonics?: true
    Max angular momentum: 2

   => Loading Basis Set <=

    Name: (CC-PVDZ AUX)
    Role: JKFIT
    Keyword: DF_BASIS_SCF
    atoms 1   entry O          line   220 file /home/matt/psi4conda/share/psi4/basis/cc-pvdz-jkfit.gbs 
    atoms 2-3 entry H          line    50 file /home/matt/psi4conda/share/psi4/basis/cc-pvdz-jkfit.gbs 

  ==> Pre-Iterations <==

   -------------------------------------------------------
    Irrep   Nso     Nmo     Nalpha   Nbeta   Ndocc  Nsocc
   -------------------------------------------------------
     A1        11      11       0       0       0       0
     A2         2       2       0       0       0       0
     B1         4       4       0       0       0       0
     B2         7       7       0       0       0       0
   -------------------------------------------------------
    Total      24      24       5       5       5       0
   -------------------------------------------------------

  ==> Integral Setup <==

  ==> DFJK: Density-Fitted J/K Matrices <==

    J tasked:                  Yes
    K tasked:                  Yes
    wK tasked:                  No
    OpenMP threads:              1
    Integrals threads:           1
    Memory (MB):               375
    Algorithm:                Core
    Integral Cache:           NONE
    Schwarz Cutoff:          1E-12
    Fitting Condition:       1E-12

   => Auxiliary Basis Set <=

  Basis Set: (CC-PVDZ AUX)
    Blend: CC-PVDZ-JKFIT
    Number of shells: 42
    Number of basis function: 116
    Number of Cartesian functions: 131
    Spherical Harmonics?: true
    Max angular momentum: 3

  Minimum eigenvalue in the overlap matrix is 4.7137033122E-02.
  Using Symmetric Orthogonalization.

  SCF Guess: Superposition of Atomic Densities via on-the-fly atomic UHF.

  ==> Iterations <==

                           Total Energy        Delta E     RMS |[F,P]|

   @DF-RHF iter   0:   -75.75324803027519   -7.57532e+01   9.16751e-02 
   @DF-RHF iter   1:   -75.94633080973487   -1.93083e-01   2.08361e-02 
   @DF-RHF iter   2:   -75.97808936296080   -3.17586e-02   1.24447e-02 DIIS
   @DF-RHF iter   3:   -75.98891339363205   -1.08240e-02   2.08380e-03 DIIS
   @DF-RHF iter   4:   -75.98998048660346   -1.06709e-03   7.51959e-04 DIIS
   @DF-RHF iter   5:   -75.99013611937858   -1.55633e-04   1.60563e-04 DIIS
   @DF-RHF iter   6:   -75.99014514449800   -9.02512e-06   3.15012e-05 DIIS
   @DF-RHF iter   7:   -75.99014546944466   -3.24947e-07   5.00569e-06 DIIS
   @DF-RHF iter   8:   -75.99014547506891   -5.62426e-09   6.56899e-07 DIIS
   @DF-RHF iter   9:   -75.99014547513461   -6.56968e-11   4.78759e-08 DIIS
   @DF-RHF iter  10:   -75.99014547513504   -4.26326e-13   7.43945e-09 DIIS

  ==> Post-Iterations <==

    Orbital Energies (a.u.)
    -----------------------

    Doubly Occupied:                                                      

       1A1   -20.570447     2A1    -1.275802     1B2    -0.638651  
       3A1    -0.533135     1B1    -0.484267  

    Virtual:                                                              

       4A1     0.158091     2B2     0.231533     3B2     0.721184  
       5A1     0.729651     6A1     1.169150     2B1     1.189531  
       4B2     1.260775     1A2     1.440468     7A1     1.510776  
       3B1     1.677494     5B2     1.790220     8A1     1.896863  
       6B2     2.168361     9A1     2.207531     4B1     3.159739  
       2A2     3.228678    10A1     3.309554    11A1     3.758014  
       7B2     3.970511  

    Final Occupation by Irrep:
             A1    A2    B1    B2 
    DOCC [     3,    0,    1,    1 ]

  Energy converged.

  @DF-RHF Final Energy:   -75.99014547513504

   => Energetics <=

    Nuclear Repulsion Energy =              8.0276060576237533
    One-Electron Energy =                -121.0308984436801012
    Two-Electron Energy =                  37.0131469109213000
    DFT Exchange-Correlation Energy =       0.0000000000000000
    Empirical Dispersion Energy =           0.0000000000000000
    PCM Polarization Energy =               0.0000000000000000
    EFP Energy =                            0.0000000000000000
    Total Energy =                        -75.9901454751350514



Properties will be evaluated at   0.000000,   0.000000,   0.000000 Bohr

Properties computed using the SCF density matrix

  Nuclear Dipole Moment: (a.u.)
     X:     0.0000      Y:     0.0000      Z:     1.0586

  Electronic Dipole Moment: (a.u.)
     X:     0.0000      Y:     0.0000      Z:    -0.2367

  Dipole Moment: (a.u.)
     X:     0.0000      Y:     0.0000      Z:     0.8220     Total:     0.8220

  Dipole Moment: (Debye)
     X:     0.0000      Y:     0.0000      Z:     2.0893     Total:     2.0893


*** tstop() called on sebastian at Tue Jul 25 16:11:33 2017
Module time:
	user time   =       0.23 seconds =       0.00 minutes
	system time =       0.02 seconds =       0.00 minutes
	total time  =          1 seconds =       0.02 minutes
Total time:
	user time   =       0.23 seconds =       0.00 minutes
	system time =       0.02 seconds =       0.00 minutes
	total time  =          1 seconds =       0.02 minutes

*** Psi4 exiting successfully. Buy a developer a beer!
